 &FCI NORB=   2,NELEC= 2,MS2=0,
  ORBSYM=1,1,
  ISYM=1,
 &END
 0.7746059439198978    1    1    1    1
 0.444107658031961    2    1    1    1
 0.2970285402769315    2    1    2    1
 0.56967592560375    2    2    1    1
 0.4441076580319608    2    2    2    1
 0.7746059439198978    2    2    2    2
 -1.120409008906821    1    1  0  0
 -0.9583799643896168    2    1  0  0
 -1.12040900890682    2    2  0  0
 0  0  0  0  0
