 &FCI NORB=   2,NELEC= 2,MS2=0,
  ORBSYM=1,1,
  ISYM=1,
 &END
 0.774998521297643    1    1    1    1
 0.4439261323302518    2    1    1    1
 0.2967202403748507    2    1    2    1
 0.5696754559600666    2    2    1    1
 0.4439261323302517    2    2    2    1
 0.774998521297643    2    2    2    2
 -1.124627763317029    1    1  0  0
 -0.9610786428813261    2    1  0  0
 -1.124627763317029    2    2  0  0
 0  0  0  0  0
