 &FCI NORB=   2,NELEC= 2,MS2=0,
  ORBSYM=1,1,
  ISYM=1,
 &END
 0.6745369341376691    1    1    1    1
 0.6642361276704247    1    1    2    2
 0.1815454162723155    2    1    2    1
 0.6642361276704248    2    2    1    1
 0.6990732289883608    2    2    2    2
 -1.257073507803066    1    1  0  0
 -0.4798640978697179    2    2  0  0
 0.7142857142857143  0  0  0  0
