 &FCI NORB=   7,NELEC=10,MS2=0,
  ORBSYM=1,1,1,1,1,1,1,
  ISYM=1,
 &END
 0.7746059439198978    1    1    1    1
 0.02962004660381846    2    1    1    1
 0.007310099178199666    2    1    2    1
 0.5319497542434068    2    2    1    1
 0.1717625346971538    2    2    2    1
 4.785065404705503    2    2    2    2
 0.3063123017602794    3    1    1    1
 0.02189850385739393    3    1    2    1
 0.4035893439628639    3    1    2    2
 0.1613638714373993    3    1    3    1
 0.1254577508047524    3    2    1    1
 0.03142854629723171    3    2    2    1
 0.7413803519734079    3    2    2    2
 0.09366123649066607    3    2    3    1
 0.1368733853543883    3    2    3    2
 0.503248081857955    3    3    1    1
 0.0585002586134894    3    3    2    1
 1.11894686634247    3    3    2    2
 0.3285449865017721    3    3    3    1
 0.2566333947309737    3    3    3    2
 0.8172063215260582    3    3    3    3
 0.02343449526831799    4    1    4    1
 0.009971504022136025    4    2    4    1
 0.02447741225809921    4    2    4    2
 0.05742022432549396    4    3    4    1
 0.03780860741636089    4    3    4    2
 0.1805183921046316    4    3    4    3
 0.4827503711707848    4    4    1    1
 0.05838943671429407    4    4    2    1
 1.115813812152425    4    4    2    2
 0.3230870382783111    4    4    3    1
 0.2566839858101024    4    4    3    2
 0.817022605320912    4    4    3    3
 0.8801590933750436    4    4    4    4
 0.02343449526831799    5    1    5    1
 0.009971504022136025    5    2    5    1
 0.02447741225809921    5    2    5    2
 0.05742022432549396    5    3    5    1
 0.03780860741636089    5    3    5    2
 0.1805183921046316    5    3    5    3
 0.04744444511838376    5    4    5    4
 0.4827503711707848    5    5    1    1
 0.05838943671429407    5    5    2    1
 1.115813812152425    5    5    2    2
 0.3230870382783111    5    5    3    1
 0.2566839858101024    5    5    3    2
 0.817022605320912    5    5    3    3
 0.7852702031382766    5    5    4    4
 0.8801590933750436    5    5    5    5
 -0.3242447543069878    6    1    1    1
 -0.01635541779490054    6    1    2    1
 -0.2844691654366949    6    1    2    2
 -0.1495154911625516    6    1    3    1
 -0.06689348378938911    6    1    3    2
 -0.2506238307052424    6    1    3    3
 -0.2391645448891593    6    1    4    4
 -0.2391645448891593    6    1    5    5
 0.1604305707812226    6    1    6    1
 -0.01253024173467581    6    2    1    1
 -0.001445249289032948    6    2    2    1
 -0.007002777319242558    6    2    3    1
 0.01437270124422114    6    2    6    1
 0.02447741225809921    6    2    6    2
 -0.1285477623857965    6    3    1    1
 -0.002697613765763023    6    3    2    1
 -0.05272862523134831    6    3    3    1
 0.09570088384124142    6    3    6    1
 0.03780860741636089    6    3    6    2
 0.1805183921046316    6    3    6    3
 -0.01105155939133315    6    4    4    1
 0.04744444511838376    6    4    6    4
 -0.01105155939133315    6    5    5    1
 0.04744444511838376    6    5    6    5
 0.543629898375358    6    6    1    1
 0.05872929630244512    6    6    2    1
 1.115813812152425    6    6    2    2
 0.3391539788990338    6    6    3    1
 0.2566839858101024    6    6    3    2
 0.817022605320912    6    6    3    3
 0.7852702031382766    6    6    4    4
 0.7852702031382766    6    6    5    5
 -0.2732669826100346    6    6    6    1
 0.8801590933750436    6    6    6    6
 0.1610199882177505    7    1    1    1
 0.009893220269442017    7    1    2    1
 0.1818564619874396    7    1    2    2
 0.08094962100177611    7    1    3    1
 0.04262275910411309    7    1    3    2
 0.1628567989578941    7    1    3    3
 0.158749836814607    7    1    4    4
 0.009976537280133939    7    1    5    1
 0.002467661889545793    7    1    5    2
 0.02222809760101023    7    1    5    3
 0.1650961413958037    7    1    5    5
 -0.07349044986028    7    1    6    1
 -0.002273806216403335    7    1    6    2
 -0.02048198437042902    7    1    6    3
 -0.003343309784544702    7    1    6    5
 0.1645485410547197    7    1    6    6
 0.04956292806427228    7    1    7    1
 0.0285025565377384    7    2    1    1
 0.007212324622766635    7    2    2    1
 0.1717756561838812    7    2    2    2
 0.02130162423889527    7    2    3    1
 0.03143093766600387    7    2    3    2
 0.05850467829860386    7    2    3    3
 0.05839384950142147    7    2    4    4
 0.0007159547422058325    7    2    5    1
 0.001440527563121704    7    2    5    2
 0.002688796418113794    7    2    5    3
 0.05873146405212611    7    2    5    5
 -0.01514094425873539    7    2    6    1
 0.000118013157176258    7    2    6    2
 0.000220275795083148    7    2    6    3
 2.76585884625216e-05    7    2    6    5
 0.05839611539166269    7    2    6    6
 0.009893962600710331    7    2    7    1
 0.007311211052249954    7    2    7    2
 0.2152996800068656    7    3    1    1
 0.02130117374293448    7    3    2    1
 0.4036114544288279    7    3    2    2
 0.1349775056839819    7    3    3    1
 0.09366632785490593    7    3    3    2
 0.3285617953732328    7    3    3    3
 0.3231036495054239    7    3    4    4
 0.01824253535938571    7    3    5    1
 0.006979752315762343    7    3    5    2
 0.05255478133470086    7    3    5    3
 0.3390640532696605    7    3    5    5
 -0.1021707830635054    7    3    6    1
 0.0005718062105708018    7    3    6    2
 0.004305475180617515    7    3    6    3
 0.001307533216472203    7    3    6    5
 0.3232107672912539    7    3    6    6
 0.08095296331511144    7    3    7    1
 0.02190134253297603    7    3    7    2
 0.1613790501534343    7    3    7    3
 0.01909195544388006    7    4    4    1
 0.009972153744730594    7    4    4    2
 0.05742357509486865    7    4    4    3
 0.01101518128404737    7    4    5    4
 0.0009024029483908129    7    4    6    4
 0.02343697651783844    7    4    7    4
 0.1656111351206212    7    5    1    1
 0.01514831962064021    7    5    2    1
 0.2835309324352714    7    5    2    2
 0.1033177462534461    7    5    3    1
 0.066672842700107    7    5    3    2
 0.2497964205239037    7    5    3    3
 0.2383749133389079    7    5    4    4
 0.03248322227849077    7    5    5    1
 0.01434418639107384    7    5    5    2
 0.09545024622374691    7    5    5    3
 0.272285195372044    7    5    5    5
 -0.07706781833018166    7    5    6    1
 0.0003581725119889602    7    5    6    2
 0.003115280562280392    7    5    6    3
 0.001875648333596105    7    5    6    5
 0.2384546450730001    7    5    6    6
 0.07406156662878485    7    5    7    1
 0.01630271282198143    7    5    7    2
 0.149028279006179    7    5    7    3
 0.1595289166499042    7    5    7    5
 -0.03455309897926329    7    6    1    1
 0.0005226554176100269    7    6    2    1
 0.02322786550595685    7    6    2    2
 -0.009839786552357403    7    6    3    1
 0.005462077135063401    7    6    3    2
 0.02046421393942014    7    6    3    3
 0.01952852332362123    7    6    4    4
 -0.002051192387173223    7    6    5    1
 0.0003581725119889601    7    6    5    2
 0.003115280562280393    7    6    5    3
 0.02050176870882652    7    6    5    5
 0.02600187023160938    7    6    6    1
 0.01000149651472381    7    6    6    2
 0.0576787899925606    7    6    6    3
 0.01109491301813957    7    6    6    5
 0.02133986112850946    7    6    6    6
 -0.003943221132960069    7    6    7    1
 0.001335576395699517    7    6    7    2
 0.0122089282873219    7    6    7    3
 0.01114913725525882    7    6    7    5
 0.02435035361729029    7    6    7    6
 0.3657519520527334    7    7    1    1
 0.02850119813488302    7    7    2    1
 0.5319648183719273    7    7    2    2
 0.2152935171778631    7    7    3    1
 0.1254612472987257    7    7    3    2
 0.5032595144227862    7    7    3    3
 0.4827612868828855    7    7    4    4
 0.0479583093595916    7    7    5    1
 0.01248894633240724    7    7    5    2
 0.128121975623086    7    7    5    3
 0.5432364839874895    7    7    5    5
 -0.1622345169140719    7    7    6    1
 0.001023139038935354    7    7    6    2
 0.01049620932915292    7    7    6    3
 0.004954343897248861    7    7    6    5
 0.4831671644099941    7    7    6    6
 0.1610199882177505    7    7    7    1
 0.02962311627537135    7    7    7    2
 0.3063294714271435    7    7    7    3
 0.3231760490603371    7    7    7    5
 0.02647573489722768    7    7    7    6
 0.7746059439198978    7    7    7    7
 -5.101782891016559    1    1  0  0
 -1.74942508062731    2    1  0  0
 -32.72085650922693    2    2  0  0
 -3.751098726870422    3    1  0  0
 -7.612790622950092    3    2  0  0
 -9.334758090180484    3    3  0  0
 -7.45760634915304    4    4  0  0
 -0.065522814054936    5    1  0  0
 -0.01547012805833842    5    2  0  0
 -0.1819698586051325    5    3  0  0
 -7.58175066834912    5    5  0  0
 2.627895324111533    6    1  0  0
 0.01425355612871879    6    2  0  0
 0.1676618921528076    6    3  0  0
 -0.0101703455240229    6    5  0  0
 -7.583407800131392    6    6  0  0
 -1.834562085130657    7    1  0  0
 -1.749556826844617    7    2  0  0
 -3.751292908152154    7    3  0  0
 -2.624567856240299    7    5  0  0
 -0.1492708289156304    7    6  0  0
 -5.101904334878516    7    7  0  0
 9.220658679560191  0  0  0  0
