 &FCI NORB=   6,NELEC=10,MS2=0,
  ORBSYM=1,1,1,1,1,1,
  ISYM=1,
 &END
 5.403501140569934    1    1    1    1
 0.8419201558275542    2    1    1    1
 0.1562993054528251    2    1    2    1
 1.268028360205202    2    2    1    1
 0.2923436834151313    2    2    2    1
 0.9261671399811631    2    2    2    2
 0.02799752843443208    3    1    3    1
 0.04316873713962076    3    2    3    1
 0.2045875062723615    3    2    3    2
 1.264502477744242    3    3    1    1
 0.2924031393458948    3    3    2    1
 0.9259589345574372    3    3    2    2
 0.9975136259296558    3    3    3    3
 0.02799752843443208    4    1    4    1
 0.04316873713962076    4    2    4    1
 0.2045875062723615    4    2    4    2
 0.05377037009823802    4    3    4    3
 1.264502477744242    4    4    1    1
 0.2924031393458948    4    4    2    1
 0.9259589345574372    4    4    2    2
 0.8899728857331787    4    4    3    3
 0.9975136259296558    4    4    4    4
 0.02799752843443208    5    1    5    1
 0.04316873713962076    5    2    5    1
 0.2045875062723615    5    2    5    2
 0.05377037009823802    5    3    5    3
 0.05377037009823802    5    4    5    4
 1.264502477744242    5    5    1    1
 0.2924031393458948    5    5    2    1
 0.9259589345574372    5    5    2    2
 0.8899728857331787    5    5    3    3
 0.8899728857331787    5    5    4    4
 0.9975136259296558    5    5    5    5
 0.1779957776320215    6    1    1    1
 0.03273957853832855    6    1    2    1
 0.06076302591692165    6    1    2    2
 0.06067373911336882    6    1    3    3
 0.06067373911336882    6    1    4    4
 0.001332618245612276    6    1    5    1
 0.002486529387114073    6    1    5    2
 0.06094991690004741    6    1    5    5
 0.006928056142750215    6    1    6    1
 0.4236724369812934    6    2    1    1
 0.09887346836369619    6    2    2    1
 0.3463746086512557    6    2    2    2
 0.3415034911248971    6    2    3    3
 0.3415034911248971    6    2    4    4
 0.006682932860860307    6    2    5    1
 0.0508690395455165    6    2    5    2
 0.3557890638553427    6    2    5    5
 0.02097029475227803    6    2    6    1
 0.1556720842427789    6    2    6    2
 0.01067353210783621    6    3    3    1
 0.06201624576367457    6    3    3    2
 0.01086299377927369    6    3    5    3
 0.02380149349483863    6    3    6    3
 0.01067353210783621    6    4    4    1
 0.06201624576367457    6    4    4    2
 0.01086299377927369    6    4    5    4
 0.02380149349483863    6    4    6    4
 0.2763199183575099    6    5    1    1
 0.06535286962607297    6    5    2    1
 0.2452159704355818    6    5    2    2
 0.2345199001377453    6    5    3    3
 0.2345199001377453    6    5    4    4
 0.01456625945016739    6    5    5    1
 0.09653116021026351    6    5    5    2
 0.2663336842231301    6    5    5    5
 0.01448018683045332    6    5    6    1
 0.1350483983800915    6    5    6    2
 0.1401570367588161    6    5    6    5
 0.5517647942840894    6    6    1    1
 0.1308850013161442    6    6    2    1
 0.526520796439861    6    6    2    2
 0.507986330656541    6    6    3    3
 0.507986330656541    6    6    4    4
 0.01185398283217536    6    6    5    1
 0.1245462704581411    6    6    5    2
 0.5629668807488457    6    6    5    5
 0.02797658174894222    6    6    6    1
 0.2940741248711466    6    6    6    2
 0.2963123242115532    6    6    6    5
 0.7746059439198978    6    6    6    6
 -40.60203696332351    1    1  0  0
 -9.526994471468097    2    1  0  0
 -11.07573517577797    2    2  0  0
 -8.73381882125207    3    3  0  0
 -8.73381882125207    4    4  0  0
 -0.01505492286524298    5    1  0  0
 -0.1800040603731868    5    2  0  0
 -8.850902076183807    5    5  0  0
 -1.995715394849428    6    1  0  0
 -4.094464421042233    6    2  0  0
 -2.647218522268602    6    5  0  0
 -5.438877529692844    6    6  0  0
 5.1933064050779  0  0  0  0
