 &FCI NORB=   5,NELEC= 8,MS2=0,
  ORBSYM=1,1,1,1,1,
  ISYM=1,
 &END
 4.787490865329464    1    1    1    1
 0.6758839914887874    2    1    1    1
 0.1215045609198504    2    1    2    1
 1.117379336461193    2    2    1    1
 0.2492124416168641    2    2    2    1
 0.8173827164550088    2    2    2    2
 0.02576210219468111    3    1    3    1
 0.0391446407157828    3    2    3    1
 0.1806642494647714    3    2    3    2
 1.117381284494715    3    3    1    1
 0.2492123933854894    3    3    2    1
 0.8173820039953104    3    3    2    2
 0.8806628419286607    3    3    3    3
 0.02576210219468111    4    1    4    1
 0.0391446407157828    4    2    4    1
 0.1806642494647714    4    2    4    2
 0.04746112339224687    4    3    4    3
 1.117381284494715    4    4    1    1
 0.2492123933854894    4    4    2    1
 0.8173820039953104    4    4    2    2
 0.7857405951441686    4    4    3    3
 0.8806628419286607    4    4    4    4
 0.02576210219468111    5    1    5    1
 0.0391446407157828    5    2    5    1
 0.1806642494647714    5    2    5    2
 0.04746112339224687    5    3    5    3
 0.04746112339224687    5    4    5    4
 1.117381284494715    5    5    1    1
 0.2492123933854894    5    5    2    1
 0.8173820039953104    5    5    2    2
 0.7857405951441686    5    5    3    3
 0.7857405951441686    5    5    4    4
 0.8806628419286605    5    5    5    5
 -31.93111794826958    1    1  0  0
 -7.047305607499047    2    1  0  0
 -8.157722322234278    2    2  0  0
 -6.468633845676722    3    3  0  0
 -6.468633845676722    4    4  0  0
 -6.468633845676721    5    5  0  0
 0  0  0  0  0
