 &FCI NORB=   2,NELEC= 2,MS2=0,
  ORBSYM=1,1,
  ISYM=1,
 &END
 0.7746059439198978    1    1    1    1
 8.681892191799625e-06    2    1    1    1
 8.5835971343045e-10    2    1    2    1
 0.09999999997568394    2    2    1    1
 8.681892191799624e-06    2    2    2    1
 0.7746059439198978    2    2    2    2
 -0.566581849557275    1    1  0  0
 -6.922290117161169e-05    2    1  0  0
 -0.566581849557275    2    2  0  0
 0  0  0  0  0
