 &FCI NORB=  10,NELEC=14,MS2=0,
  ORBSYM=1,1,1,1,1,1,1,1,1,1,
  ISYM=1,
 &END
 4.787490865329464    1    1    1    1
 0.6758839914887874    2    1    1    1
 0.1215045609198504    2    1    2    1
 1.117379336461193    2    2    1    1
 0.2492124416168641    2    2    2    1
 0.8173827164550088    2    2    2    2
 0.02576210219468111    3    1    3    1
 0.0391446407157828    3    2    3    1
 0.1806642494647714    3    2    3    2
 1.117381284494715    3    3    1    1
 0.2492123933854894    3    3    2    1
 0.8173820039953104    3    3    2    2
 0.8806628419286607    3    3    3    3
 0.02576210219468111    4    1    4    1
 0.0391446407157828    4    2    4    1
 0.1806642494647714    4    2    4    2
 0.04746112339224687    4    3    4    3
 1.117381284494715    4    4    1    1
 0.2492123933854894    4    4    2    1
 0.8173820039953104    4    4    2    2
 0.7857405951441686    4    4    3    3
 0.8806628419286607    4    4    4    4
 0.02576210219468111    5    1    5    1
 0.0391446407157828    5    2    5    1
 0.1806642494647714    5    2    5    2
 0.04746112339224687    5    3    5    3
 0.04746112339224687    5    4    5    4
 1.117381284494715    5    5    1    1
 0.2492123933854894    5    5    2    1
 0.8173820039953104    5    5    2    2
 0.7857405951441686    5    5    3    3
 0.7857405951441686    5    5    4    4
 0.8806628419286605    5    5    5    5
 9.630695801948806e-05    6    1    1    1
 1.973941389538196e-05    6    1    2    1
 5.358208515785949e-05    6    1    2    2
 5.073885790813439e-05    6    1    3    3
 5.073885790813439e-05    6    1    4    4
 4.772874695800891e-06    6    1    5    1
 1.578485839072922e-05    6    1    5    2
 5.926837837072601e-05    6    1    5    5
 6.147110653305916e-09    6    1    6    1
 0.0254018319977737    6    2    1    1
 0.005870116531961011    6    2    2    1
 0.02489120489045586    6    2    2    2
 0.02330818407678848    6    2    3    3
 0.02330818407678848    6    2    4    4
 0.0007156127518235087    6    2    5    1
 0.00768519095231246    6    2    5    2
 0.02805704888100813    6    2    5    5
 2.172077172565722e-06    6    2    6    1
 0.004256202670543006    6    2    6    2
 4.940161659842551e-05    6    3    3    1
 0.0004790663505406817    6    3    3    2
 0.0002963099802794265    6    3    5    3
 4.457099547456112e-05    6    3    6    3
 4.940161659842551e-05    6    4    4    1
 0.0004790663505406817    6    4    4    2
 0.0002963099802794265    6    4    5    4
 4.457099547456112e-05    6    4    6    4
 0.0424250645069855    6    5    1    1
 0.009804516301284203    6    5    2    1
 0.04161016821740456    6    5    2    2
 0.0389494387860485    6    5    3    3
 0.0389494387860485    6    5    4    4
 0.001193541743706572    6    5    5    1
 0.0128589973125853    6    5    5    2
 0.04693129137324697    6    5    5    5
 3.63306991213825e-06    6    5    6    1
 0.007204874645954307    6    5    6    2
 0.01219794095217862    6    5    6    5
 0.469043151750774    6    6    1    1
 0.1084169124554505    6    6    2    1
 0.4664604836960951    6    6    2    2
 0.4386234070887735    6    6    3    3
 0.4386234070887735    6    6    4    4
 0.01182211176663711    6    6    5    1
 0.1365690566470779    6    6    5    2
 0.5221272761359138    6    6    5    5
 3.857458493878328e-05    6    6    6    1
 0.1100547151023969    6    6    6    2
 0.187054244023235    6    6    6    5
 3.543743238544271    6    6    6    6
 0.1439758839916966    7    1    1    1
 0.02479858940262473    7    1    2    1
 0.04971464560220018    7    1    2    2
 0.04962241667551742    7    1    3    3
 0.04962241667551742    7    1    4    4
 0.00121265335317713    7    1    5    1
 0.002355195996647872    7    1    5    2
 0.04989910995301943    7    1    5    5
 4.258159195881498e-06    7    1    6    1
 0.001223830000692631    7    1    6    2
 0.002044027904045211    7    1    6    5
 0.02249809455673943    7    1    6    6
 0.005159039551958023    7    1    7    1
 0.3421832422106765    7    2    1    1
 0.0773479375040582    7    2    2    1
 0.2801929980367848    7    2    2    2
 0.276416531852619    7    2    3    3
 0.276416531852619    7    2    4    4
 0.006052728645605279    7    2    5    1
 0.04416629818152989    7    2    5    2
 0.2877453704216751    7    2    5    5
 2.127859165921812e-05    7    2    6    1
 0.01423549212199965    7    2    6    2
 0.0238503581852005    7    2    6    5
 0.2761740564747585    7    2    6    6
 0.01583842350298181    7    2    7    1
 0.1171447515217843    7    2    7    2
 0.008863532400551426    7    3    3    1
 0.05013466244031861    7    3    3    2
 0.009913506031343059    7    3    5    3
 0.0003512334844254671    7    3    6    3
 0.01836929318077913    7    3    7    3
 0.008863532400551426    7    4    4    1
 0.05013466244031861    7    4    4    2
 0.009913506031343059    7    4    5    4
 0.0003512334844254671    7    4    6    4
 0.01836929318077913    7    4    7    4
 0.2407515263088283    7    5    1    1
 0.0551990650957883    7    5    2    1
 0.2132823027697649    7    5    2    2
 0.2045932998150517    7    5    3    3
 0.2045932998150517    7    5    4    4
 0.01213854117772115    7    5    5    1
 0.07763877507761104    7    5    5    2
 0.2306599500251489    7    5    5    5
 2.029808841517715e-05    7    5    6    1
 0.01581259797898791    7    5    6    2
 0.02652310308675466    7    5    6    5
 0.309980809138288    7    5    6    6
 0.01180788500040851    7    5    7    1
 0.1067570190503862    7    5    7    2
 0.1112251673823408    7    5    7    5
 0.1140841886386738    7    6    1    1
 0.02636949781529425    7    6    2    1
 0.1130754890793941    7    6    2    2
 0.1066547751169832    7    6    3    3
 0.1066547751169832    7    6    4    4
 0.002874650074080769    7    6    5    1
 0.03257666733841261    7    6    5    2
 0.1259160438718724    7    6    5    5
 9.334036921748503e-06    7    6    6    1
 0.02016953778945495    7    6    6    2
 0.0341502495436481    7    6    6    5
 0.5294618781026066    7    6    6    6
 0.005471823311198031    7    6    7    1
 0.06570298857109577    7    6    7    2
 0.07290978726962971    7    6    7    5
 0.1003173461795191    7    6    7    6
 0.4573800136416717    7    7    1    1
 0.105345127783475    7    7    2    1
 0.4382754703102242    7    7    2    2
 0.4249582937353768    7    7    3    3
 0.4249582937353768    7    7    4    4
 0.009863023636261922    7    7    5    1
 0.09957364468343598    7    7    5    2
 0.464908955011382    7    7    5    5
 3.329329834178154e-05    7    7    6    1
 0.03982567568720007    7    7    6    2
 0.06696696350016215    7    7    6    5
 0.8535964147989489    7    7    6    6
 0.02171693970991296    7    7    7    1
 0.2258604574737114    7    7    7    2
 0.2312094600405687    7    7    7    5
 0.1999304732603497    7    7    7    6
 0.6248436765843337    7    7    7    7
 0.0007958976564499413    8    1    3    1
 0.001555423135738514    8    1    3    2
 0.0002062525767189852    8    1    5    3
 2.960528673994049e-06    8    1    6    3
 0.0003938034867990962    8    1    7    3
 2.764586846528888e-05    8    1    8    1
 0.004223089941272253    8    2    3    1
 0.03145425093511628    8    2    3    2
 0.009399510484062153    8    2    5    3
 0.0004532685087006256    8    2    6    3
 0.01417692187197446    8    2    7    3
 0.0002074830379918869    8    2    8    1
 0.01275671918066605    8    2    8    2
 0.1709355591096535    8    3    1    1
 0.03921572408342515    8    3    2    1
 0.1524199372833948    8    3    2    2
 0.1590053112122977    8    3    3    3
 0.1458067574758424    8    3    4    4
 0.002667175063327934    8    3    5    1
 0.02287405431779875    8    3    5    2
 0.1524474755939648    8    3    5    5
 1.057160608613381e-05    8    3    6    1
 0.007589170417838062    8    3    6    2
 0.01270505218273192    8    3    6    5
 0.1474120040365672    8    3    6    6
 0.00799590652801495    8    3    7    1
 0.06489848193533489    8    3    7    2
 0.05852559122039253    8    3    7    5
 0.03552788610985218    8    3    7    6
 0.1287810306893276    8    3    7    7
 0.03927331708054806    8    3    8    3
 0.006599276868227749    8    4    4    3
 0.002051498681576429    8    4    8    4
 0.002667175063327934    8    5    3    1
 0.02287405431779875    8    5    3    2
 0.01323999498635036    8    5    5    3
 0.000616080037739018    8    5    6    3
 0.01347243795432582    8    5    7    3
 0.0001563501589353241    8    5    8    1
 0.01371573646852776    8    5    8    2
 0.0164564040099763    8    5    8    5
 0.0004204606685197108    8    6    3    1
 0.004779134675696902    8    6    3    2
 0.002840688227206585    8    6    5    3
 0.0008604899365361286    8    6    6    3
 0.004229860384284418    8    6    7    3
 2.44406106930873e-05    8    6    8    1
 0.006477833016242761    8    6    8    2
 0.009181981482855449    8    6    8    5
 0.02127099806901366    8    6    8    6
 0.004064373211841341    8    7    3    1
 0.04179297571573846    8    7    3    2
 0.0184088587012489    8    7    5    3
 0.001689358350943061    8    7    6    3
 0.02790193832118563    8    7    7    3
 0.0002194452329160055    8    7    8    1
 0.03249631774384095    8    7    8    2
 0.04035725762082554    8    7    8    5
 0.0318676815690692    8    7    8    6
 0.1381077818141067    8    7    8    7
 0.418176669628503    8    8    1    1
 0.09664557227165678    8    8    2    1
 0.4134665942986173    8    8    2    2
 0.4071227498508684    8    8    3    3
 0.3963083543440286    8    8    4    4
 0.008156807173037012    8    8    5    1
 0.09164113586256738    8    8    5    2
 0.4369674428691773    8    8    5    5
 3.016270836695371e-05    8    8    6    1
 0.03957415456151048    8    8    6    2
 0.06653973397978867    8    8    6    5
 0.8535977577282267    8    8    6    6
 0.01986377332988049    8    8    7    1
 0.2187490504164694    8    8    7    2
 0.2251832609616169    8    8    7    5
 0.1999304255584864    8    8    7    6
 0.6248431319520383    8    8    7    7
 0.1316160689832089    8    8    8    3
 0.6732178169538716    8    8    8    8
 0.0007958976564499413    9    1    4    1
 0.001555423135738514    9    1    4    2
 0.0002062525767189852    9    1    5    4
 2.960528673994049e-06    9    1    6    4
 0.0003938034867990962    9    1    7    4
 2.764586846528888e-05    9    1    9    1
 0.004223089941272253    9    2    4    1
 0.03145425093511628    9    2    4    2
 0.009399510484062153    9    2    5    4
 0.0004532685087006256    9    2    6    4
 0.01417692187197446    9    2    7    4
 0.0002074830379918869    9    2    9    1
 0.01275671918066605    9    2    9    2
 0.006599276868227749    9    3    4    3
 0.002051498681576429    9    3    8    4
 0.002051498681576429    9    3    9    3
 0.1709355591096535    9    4    1    1
 0.03921572408342515    9    4    2    1
 0.1524199372833948    9    4    2    2
 0.1458067574758424    9    4    3    3
 0.1590053112122977    9    4    4    4
 0.002667175063327934    9    4    5    1
 0.02287405431779875    9    4    5    2
 0.1524474755939648    9    4    5    5
 1.057160608613381e-05    9    4    6    1
 0.007589170417838062    9    4    6    2
 0.01270505218273192    9    4    6    5
 0.1474120040365672    9    4    6    6
 0.00799590652801495    9    4    7    1
 0.06489848193533489    9    4    7    2
 0.05852559122039253    9    4    7    5
 0.03552788610985218    9    4    7    6
 0.1287810306893276    9    4    7    7
 0.03517031971739521    9    4    8    3
 0.1216803578831893    9    4    8    8
 0.03927331708054806    9    4    9    4
 0.002667175063327934    9    5    4    1
 0.02287405431779875    9    5    4    2
 0.01323999498635036    9    5    5    4
 0.000616080037739018    9    5    6    4
 0.01347243795432582    9    5    7    4
 0.0001563501589353241    9    5    9    1
 0.01371573646852776    9    5    9    2
 0.0164564040099763    9    5    9    5
 0.0004204606685197108    9    6    4    1
 0.004779134675696902    9    6    4    2
 0.002840688227206585    9    6    5    4
 0.0008604899365361286    9    6    6    4
 0.004229860384284418    9    6    7    4
 2.44406106930873e-05    9    6    9    1
 0.006477833016242761    9    6    9    2
 0.009181981482855449    9    6    9    5
 0.02127099806901366    9    6    9    6
 0.004064373211841341    9    7    4    1
 0.04179297571573846    9    7    4    2
 0.0184088587012489    9    7    5    4
 0.001689358350943061    9    7    6    4
 0.02790193832118563    9    7    7    4
 0.0002194452329160055    9    7    9    1
 0.03249631774384095    9    7    9    2
 0.04035725762082554    9    7    9    5
 0.0318676815690692    9    7    9    6
 0.1381077818141067    9    7    9    7
 0.005407197753419813    9    8    4    3
 0.004967855550009741    9    8    8    4
 0.004967855550009741    9    8    9    3
 0.03628139210454299    9    8    9    8
 0.418176669628503    9    9    1    1
 0.09664557227165678    9    9    2    1
 0.4134665942986173    9    9    2    2
 0.3963083543440286    9    9    3    3
 0.4071227498508684    9    9    4    4
 0.008156807173037012    9    9    5    1
 0.09164113586256738    9    9    5    2
 0.4369674428691773    9    9    5    5
 3.016270836695371e-05    9    9    6    1
 0.03957415456151048    9    9    6    2
 0.06653973397978867    9    9    6    5
 0.8535977577282267    9    9    6    6
 0.01986377332988049    9    9    7    1
 0.2187490504164694    9    9    7    2
 0.2251832609616169    9    9    7    5
 0.1999304255584864    9    9    7    6
 0.6248431319520383    9    9    7    7
 0.1216803578831893    9    9    8    3
 0.6006550327447859    9    9    8    8
 0.1316160689832089    9    9    9    4
 0.6732178169538716    9    9    9    9
 -0.2471449169515469   10    1    1    1
 -0.04248499157820465   10    1    2    1
 -0.08488698508360233   10    1    2    2
 -0.08471697424728794   10    1    3    3
 -0.08471697424728794   10    1    4    4
 -0.002071940356993856   10    1    5    1
 -0.003968865326689961   10    1    5    2
 -0.08522702191460237   10    1    5    5
 -7.279834504718894e-06   10    1    6    1
 -0.002085945480738339   10    1    6    2
 -0.003483923850828695   10    1    6    5
 -0.03834668626361781   10    1    6    6
 -0.008840566915225731   10    1    7    1
 -0.02702063512701983   10    1    7    2
 -0.02012845088684477   10    1    7    5
 -0.009326424272866727   10    1    7    6
 -0.03702178498444842   10    1    7    7
 -0.01363440835083962   10    1    8    3
 -0.03385880867719562   10    1    8    8
 -0.01363440835083962   10    1    9    4
 -0.03385880867719562   10    1    9    9
 0.01514967791467618   10    1   10    1
 -0.4707520015207519   10    2    1    1
 -0.10582440008946   10    2    2    1
 -0.3683783061166724   10    2    2    2
 -0.3639199541763536   10    2    3    3
 -0.3639199541763536   10    2    4    4
 -0.00819780936076411   10    2    5    1
 -0.05298413129692223   10    2    5    2
 -0.3772942912465969   10    2    5    5
 -2.843847962823839e-05   10    2    6    1
 -0.01561492928320989   10    2    6    2
 -0.02612316573252658   10    2    6    5
 -0.2871485867588808   10    2    6    6
 -0.02165895410278533   10    2    7    1
 -0.1458114684353398   10    2    7    2
 -0.1286291561002129   10    2    7    5
 -0.06913956728738219   10    2    7    6
 -0.2488624854005953   10    2    7    7
 -0.07948436367251767   10    2    8    3
 -0.2359916517769128   10    2    8    8
 -0.07948436367251767   10    2    9    4
 -0.2359916517769128   10    2    9    9
 0.03695840484498179   10    2   10    1
 0.1875921096981419   10    2   10    2
 -0.01363816567433244   10    3    3    1
 -0.07156746028550902   10    3    3    2
 -0.012534934409263   10    3    5    3
 -0.0003785321584269608   10    3    6    3
 -0.02433353779535536   10    3    7    3
 -0.0005961384591329553   10    3    8    1
 -0.01751257733861385   10    3    8    2
 -0.01574374394875324   10    3    8    5
 -0.00381454845014568   10    3    8    6
 -0.02805340793016697   10    3    8    7
 0.03336574443403327   10    3   10    3
 -0.01363816567433244   10    4    4    1
 -0.07156746028550902   10    4    4    2
 -0.012534934409263   10    4    5    4
 -0.0003785321584269608   10    4    6    4
 -0.02433353779535536   10    4    7    4
 -0.0005961384591329553   10    4    9    1
 -0.01751257733861385   10    4    9    2
 -0.01574374394875324   10    4    9    5
 -0.00381454845014568   10    4    9    6
 -0.02805340793016697   10    4    9    7
 0.03336574443403327   10    4   10    4
 -0.2789431243305673   10    5    1    1
 -0.06370956883596715   10    5    2    1
 -0.2349103396675268   10    5    2    2
 -0.2240178923029119   10    5    3    3
 -0.2240178923029119   10    5    4    4
 -0.0177764066403837   10    5    5    1
 -0.1011296067199697   10    5    5    2
 -0.2566949186484422   10    5    5    5
 -2.491313748613688e-05   10    5    6    1
 -0.0149845058466597   10    5    6    2
 -0.02508732566396029   10    5    6    5
 -0.2697405869967162   10    5    6    6
 -0.01385828245806045   10    5    7    1
 -0.1146751687540229   10    5    7    2
 -0.1202698799985192   10    5    7    5
 -0.06443197409258737   10    5    7    6
 -0.2123586422748498   10    5    7    7
 -0.06114845336671558   10    5    8    3
 -0.2006069830888863   10    5    8    8
 -0.06114845336671558   10    5    9    4
 -0.2006069830888863   10    5    9    9
 0.02362520233812876   10    5   10    1
 0.1449413083269045   10    5   10    2
 0.1406918795828315   10    5   10    5
 -0.01668451198780525   10    6    1    1
 -0.003855731193019715   10    6    2    1
 -0.01561317879930306   10    6    2    2
 -0.01344756531532442   10    6    3    3
 -0.01344756531532442   10    6    4    4
 -0.0008396842101109938   10    6    5    1
 -0.008171665070268789   10    6    5    2
 -0.0199436594894326   10    6    5    5
 -1.993508183101756e-06   10    6    6    1
 -0.001852692409530622   10    6    6    2
 -0.003103800505090047   10    6    6    5
 -0.0008328057947984648   10    6    7    1
 -0.008370015442477228   10    6    7    2
 -0.009772173915483576   10    6    7    5
 -0.003814548450145681   10    6    8    3
 -0.003814548450145681   10    6    9    4
 0.00141915058020043   10    6   10    1
 0.01337726786863881   10    6   10    2
 0.01623831240488375   10    6   10    5
 0.02127099806901366   10    6   10    6
 -0.163625341710743   10    7    1    1
 -0.03717788219536088   10    7    2    1
 -0.1338357141092569   10    7    2    2
 -0.1280802543622225   10    7    3    3
 -0.1280802543622225   10    7    4    4
 -0.005756951079944067   10    7    5    1
 -0.04140836259528565   10    7    5    2
 -0.1453464323906759   10    7    5    5
 -1.29275002628914e-05   10    7    6    1
 -0.003591162495258819   10    7    6    2
 -0.005886160070059104   10    7    6    5
 -0.007819589500918595   10    7    7    1
 -0.0538891377787807   10    7    7    2
 -0.05048517870201785   10    7    7    5
 -0.02805340793016698   10    7    8    3
 -0.02805340793016698   10    7    9    4
 0.01333428259152413   10    7   10    1
 0.08221352618299937   10    7   10    2
 0.07883507677067947   10    7   10    5
 0.0318676815690692   10    7   10    6
 0.1381077818141067   10    7   10    7
 -0.002863447373079353   10    8    3    1
 -0.02444614458992414   10    8    3    2
 -0.01093226680504276   10    8    5    3
 -0.0003828050178952839   10    8    6    3
 -0.01205276153482253   10    8    7    3
 -0.0001554351678144857   10    8    8    1
 -0.01043357406658742   10    8    8    2
 -0.0112958878520523   10    8    8    5
 0.01633401738151898   10    8   10    3
 0.03628139210454299   10    8   10    8
 -0.002863447373079353   10    9    4    1
 -0.02444614458992414   10    9    4    2
 -0.01093226680504276   10    9    5    4
 -0.0003828050178952839   10    9    6    4
 -0.01205276153482253   10    9    7    4
 -0.0001554351678144857   10    9    9    1
 -0.01043357406658742   10    9    9    2
 -0.0112958878520523   10    9    9    5
 0.01633401738151898   10    9   10    4
 0.03628139210454299   10    9   10    9
 0.5357973205527147   10   10    1    1
 0.1227457125865507   10   10    2    1
 0.4878923904651679   10   10    2    2
 0.471444081241964   10   10    3    3
 0.471444081241964   10   10    4    4
 0.01327771356666507   10   10    5    1
 0.1154403633334542   10   10    5    2
 0.5207888719577023   10   10    5    5
 3.955433591117079e-05   10   10    6    1
 0.04032870859576791   10   10    6    2
 0.0678214128785664   10   10    6    5
 0.8535977577282267   10   10    6    6
 0.02542366516728213   10   10    7    1
 0.2400828247404076   10   10    7    2
 0.2432613441681711   10   10    7    5
 0.1999304255584864   10   10    7    6
 0.6248431319520383   10   10    7    7
 0.1330465197146988   10   10    8    3
 0.6006550327447859   10   10    8    8
 0.1330465197146988   10   10    9    4
 0.6006550327447859   10   10    9    9
 -0.04334841121486167   10   10   10    1
 -0.2746037180074104   10   10   10    2
 -0.235861577822768   10   10   10    5
 0.6732178169538716   10   10   10   10
 -34.74537686008946    1    1  0  0
 -7.697807136141731    2    1  0  0
 -10.9589524119204    2    2  0  0
 -9.10041793363223    3    3  0  0
 -9.10041793363223    4    4  0  0
 -0.07093276078160332    5    1  0  0
 -0.8236589202353483    5    2  0  0
 -9.608700680382185    5    5  0  0
 -0.002027105187387541    6    1  0  0
 -1.031145631666729    6    2  0  0
 -1.727685984262173    6    5  0  0
 -21.69166609808352    6    6  0  0
 -1.550151723201283    7    1  0  0
 -4.330083940619512    7    2  0  0
 -3.594788956665872    7    5  0  0
 -5.023887224898415    7    6  0  0
 -8.330977199429856    7    7  0  0
 -2.115476761345677    8    3  0  0
 -7.026182497013298    8    8  0  0
 -2.115476761345677    9    4  0  0
 -7.026182497013298    9    9  0  0
 2.64375824447781   10    1  0  0
 5.237496062629795   10    2  0  0
 3.386531953719738   10    5  0  0
 0.1334783559493598   10    6  0  0
 1.316168247130573   10    7  0  0
 -7.979492355175264   10   10  0  0
 0  0  0  0  0
