 &FCI NORB=   2,NELEC= 2,MS2=0,
  ORBSYM=1,1,
  ISYM=1,
 &END
 1.055712942735072    1    1    1    1
 0.4439649874114328    2    1    1    1
 0.224319338799493    2    1    2    1
 0.5908073084285695    2    2    1    1
 0.3674101571312849    2    2    2    1
 0.7746059439198978    2    2    2    2
 -2.598283007586629    1    1  0  0
 -1.431828504632031    2    1  0  0
 -1.731825672645798    2    2  0  0
 1.366867140513942  0  0  0  0
