 &FCI NORB=  10,NELEC=14,MS2=0,
  ORBSYM=1,1,1,1,1,1,1,1,1,1,
  ISYM=1,
 &END
 4.168742045909472    1    1    1    1
 0.5836479567190209    2    1    1    1
 0.1041144959160677    2    1    2    1
 0.9684865564349363    2    2    1    1
 0.2144504790965864    2    2    2    1
 0.7083983543298029    2    2    2    2
 0.0220747747811187    3    1    3    1
 0.03361115550043672    3    2    3    1
 0.1565756828827412    3    2    3    2
 0.968488270573396    3    3    1    1
 0.2144504389696152    3    3    2    1
 0.7083977368496046    3    3    2    2
 0.7632411297139956    3    3    3    3
 0.0220747747811187    4    1    4    1
 0.03361115550043672    4    2    4    1
 0.1565756828827412    4    2    4    2
 0.04113297360957149    4    3    4    3
 0.968488270573396    4    4    1    1
 0.2144504389696152    4    4    2    1
 0.7083977368496046    4    4    2    2
 0.6809751824948523    4    4    3    3
 0.7632411297139956    4    4    4    4
 0.0220747747811187    5    1    5    1
 0.03361115550043672    5    2    5    1
 0.1565756828827412    5    2    5    2
 0.04113297360957149    5    3    5    3
 0.04113297360957149    5    4    5    4
 0.968488270573396    5    5    1    1
 0.2144504389696152    5    5    2    1
 0.7083977368496046    5    5    2    2
 0.6809751824948523    5    5    3    3
 0.6809751824948523    5    5    4    4
 0.7632411297139957    5    5    5    5
 5.040373597925884e-05    6    1    1    1
 1.11437325972254e-05    6    1    2    1
 3.661591840491302e-05    6    1    2    2
 3.371428273517317e-05    6    1    3    3
 3.371428273517317e-05    6    1    4    4
 2.724397361056809e-06    6    1    5    1
 1.32171350308693e-05    6    1    5    2
 4.241903548844947e-05    6    1    5    5
 4.305213274049445e-09    6    1    6    1
 0.0269816082521305    6    2    1    1
 0.00618936533398941    6    2    2    1
 0.02622583918565965    6    2    2    2
 0.02420727573118392    6    2    3    3
 0.02420727573118392    6    2    4    4
 0.0008511461006860272    6    2    5    1
 0.008947532807548383    6    2    5    2
 0.03026299952255494    6    2    5    5
 2.842179545816272e-06    6    2    6    1
 0.00584511172723324    6    2    6    2
 3.807306191769349e-05    6    3    3    1
 0.0003735740871066058    6    3    3    2
 0.0002518194863422805    6    3    5    3
 4.447795304311125e-05    6    3    6    3
 3.807306191769349e-05    6    4    4    1
 0.0003735740871066058    6    4    4    2
 0.0002518194863422805    6    4    5    4
 4.447795304311125e-05    6    4    6    4
 0.04559074689691907    6    5    1    1
 0.01045825582179166    6    5    2    1
 0.04433136771610475    6    5    2    2
 0.04091029793282663    6    5    3    3
 0.04091029793282663    6    5    4    4
 0.00143737530386379    6    5    5    1
 0.01513334718077674    6    5    5    2
 0.05117356324181641    6    5    5    5
 4.81402113472323e-06    6    5    6    1
 0.009958025360015384    6    5    6    2
 0.01696597011824209    6    5    6    5
 0.4821600770216204    6    6    1    1
 0.1106150919745405    6    6    2    1
 0.4748452049143316    6    6    2    2
 0.4386536583431863    6    6    3    3
 0.4386536583431863    6    6    4    4
 0.01425427450431562    6    6    5    1
 0.1590153477845006    6    6    5    2
 0.5472233094307013    6    6    5    5
 5.040373597925874e-05    6    6    6    1
 0.1421324142976456    6    6    6    2
 0.2427470674813604    6    6    6    5
 4.168742045909472    6    6    6    6
 0.1421324142976455    7    1    1    1
 0.02432325992108761    7    1    2    1
 0.04906742725584931    7    1    2    2
 0.04890968850375415    7    1    3    3
 0.04890968850375415    7    1    4    4
 0.001587832764385217    7    1    5    1
 0.003086879214619269    7    1    5    2
 0.0493829107746816    7    1    5    5
 2.842179545816267e-06    7    1    6    1
 0.001516304601125962    7    1    6    2
 0.002562081593950008    7    1    6    5
 0.0269816082521305    7    1    6    6
 0.005845111727233237    7    1    7    1
 0.3341630921416396    7    2    1    1
 0.07495500203379454    7    2    2    1
 0.2717795092439861    7    2    2    2
 0.2662056330424326    7    2    3    3
 0.2662056330424326    7    2    4    4
 0.007420624325425444    7    2    5    1
 0.05271977135064713    7    2    5    2
 0.282926714174245    7    2    5    5
 1.96167041353787e-05    7    2    6    1
 0.01792856203277843    7    2    6    2
 0.03034274196808869    7    2    6    5
 0.3341630921416395    7    2    6    6
 0.01792856203277843    7    2    7    1
 0.1345387298105111    7    2    7    2
 0.00818560076219743    7    3    3    1
 0.04511258785740211    7    3    3    2
 0.0112797172343197    7    3    5    3
 0.0003281043560911054    7    3    6    3
 0.0184213140323887    7    3    7    3
 0.00818560076219743    7    4    4    1
 0.04511258785740211    7    4    4    2
 0.0112797172343197    7    4    5    4
 0.0003281043560911054    7    4    6    4
 0.0184213140323887    7    4    7    4
 0.2842036068659643    7    5    1    1
 0.06461415143124889    7    5    2    1
 0.2482053370621744    7    5    2    2
 0.2369449224339786    7    5    3    3
 0.2369449224339786    7    5    4    4
 0.01308367882215228    7    5    5    1
 0.08477145044825347    7    5    5    2
 0.2707257346449689    7    5    5    5
 2.259157508290542e-05    7    5    6    1
 0.02210411261712025    7    5    6    2
 0.03742842411031997    7    5    6    5
 0.4156454361101045    7    5    6    6
 0.01613775765885713    7    5    7    1
 0.1433797097234445    7    5    7    2
 0.1645895323985813    7    5    7    5
 0.1106150919745402    7    6    1    1
 0.02537640601799371    7    6    2    1
 0.1084902708920605    7    6    2    2
 0.1006096595595766    7    6    3    3
 0.1006096595595766    7    6    4    4
 0.003269429275831405    7    6    5    1
 0.03572159003126001    7    6    5    2
 0.124251087445367    7    6    5    5
 1.11437325972254e-05    7    6    6    1
 0.02432325992108764    7    6    6    2
 0.04142915604208634    7    6    6    5
 0.5836479567190209    7    6    6    6
 0.006189365333989411    7    6    7    1
 0.07495500203379463    7    6    7    2
 0.0924521650226557    7    6    7    5
 0.1041144959160677    7    6    7    6
 0.474845204914331    7    7    1    1
 0.1084902708920607    7    7    2    1
 0.4481437113140747    7    7    2    2
 0.4290070573481562    7    7    3    3
 0.4290070573481562    7    7    4    4
 0.01251837452063768    7    7    5    1
 0.1202799452822886    7    7    5    2
 0.4864161099310141    7    7    5    5
 3.661591840491303e-05    7    7    6    1
 0.0490674272558494    7    7    6    2
 0.08317709550986337    7    7    6    5
 0.9684865564349363    7    7    6    6
 0.02622583918565963    7    7    7    1
 0.2717795092439863    7    7    7    2
 0.3152255399572098    7    7    7    5
 0.2144504790965864    7    7    7    6
 0.7083983543298029    7    7    7    7
 0.0009163091474831623    8    1    3    1
 0.001797730104517055    8    1    3    2
 0.0003055090884962127    8    1    5    3
 3.560787519538293e-06    8    1    6    3
 0.0005147691211735038    8    1    7    3
 4.447795304311125e-05    8    1    8    1
 0.004604025592327413    8    2    3    1
 0.03345399164635479    8    2    3    2
 0.01202320682375156    8    2    5    3
 0.0005147691211735041    8    2    6    3
 0.01706630586773112    8    2    7    3
 0.0003281043560911054    8    2    8    1
 0.01842131403238871    8    2    8    2
 0.1791171214058934    8    3    1    1
 0.04075341946444672    8    3    2    1
 0.1575525539968285    8    3    2    2
 0.1631272208770643    8    3    3    3
 0.1498806334641037    8    3    4    4
 0.003448338943513406    8    3    5    1
 0.02848857103109299    8    3    5    2
 0.1596495701929719    8    3    5    5
 1.020918310007581e-05    8    3    6    1
 0.009674604127196076    8    3    6    2
 0.01636273963519386    8    3    6    5
 0.1791171214058935    8    3    6    6
 0.009674604127196087    8    3    7    1
 0.0778120446622004    8    3    7    2
 0.0816945472288521    8    3    7    5
 0.04075341946444671    8    3    7    6
 0.1575525539968283    8    3    7    7
 0.04905407581456889    8    3    8    3
 0.006623293706480351    8    4    4    3
 0.002564869962977718    8    4    8    4
 0.003448338943513405    8    5    3    1
 0.02848857103109299    8    5    3    2
 0.01639223043534872    8    5    5    3
 0.0007396262327085607    8    5    6    3
 0.01846445652340432    8    5    7    3
 0.0002940482526525908    8    5    8    1
 0.02196927649648727    8    5    8    2
 0.02802396039062087    8    5    8    5
 0.0004213390555807955    8    6    3    1
 0.004617965998757001    8    6    3    2
 0.003070803323663563    8    6    5    3
 0.0009163091474831622    8    6    6    3
 0.004604025592327415    8    6    7    3
 3.807306191769347e-05    8    6    8    1
 0.008185600762197423    8    6    8    2
 0.01207256379202778    8    6    8    5
 0.0220747747811187    8    6    8    6
 0.004617965998757    8    7    3    1
 0.0452883181190115    8    7    3    2
 0.02329105402261274    8    7    5    3
 0.001797730104517053    8    7    6    3
 0.03345399164635474    8    7    7    3
 0.0003735740871066056    8    7    8    1
 0.04511258785740209    8    7    8    2
 0.05985202680207294    8    7    8    5
 0.03361115550043672    8    7    8    6
 0.1565756828827412    8    7    8    7
 0.4386536583431864    8    8    1    1
 0.1006096595595765    8    8    2    1
 0.4290070573481559    8    8    2    2
 0.4175797885458786    8    8    3    3
 0.4052499402856438    8    8    4    4
 0.01049990482206383    8    8    5    1
 0.1135301370730885    8    8    5    2
 0.4641900939681179    8    8    5    5
 3.371428273517315e-05    8    8    6    1
 0.0489096885037541    8    8    6    2
 0.0828959940132056    8    8    6    5
 0.968488270573396    8    8    6    6
 0.02420727573118392    8    8    7    1
 0.2662056330424323    8    8    7    2
 0.3099136418732792    8    8    7    5
 0.2144504389696152    8    8    7    6
 0.7083977368496046    8    8    7    7
 0.1631272208770643    8    8    8    3
 0.7632411297139956    8    8    8    8
 0.0009163091474831623    9    1    4    1
 0.001797730104517055    9    1    4    2
 0.0003055090884962127    9    1    5    4
 3.560787519538293e-06    9    1    6    4
 0.0005147691211735038    9    1    7    4
 4.447795304311125e-05    9    1    9    1
 0.004604025592327413    9    2    4    1
 0.03345399164635479    9    2    4    2
 0.01202320682375156    9    2    5    4
 0.0005147691211735041    9    2    6    4
 0.01706630586773112    9    2    7    4
 0.0003281043560911054    9    2    9    1
 0.01842131403238871    9    2    9    2
 0.006623293706480351    9    3    4    3
 0.002564869962977718    9    3    8    4
 0.002564869962977718    9    3    9    3
 0.1791171214058934    9    4    1    1
 0.04075341946444672    9    4    2    1
 0.1575525539968285    9    4    2    2
 0.1498806334641037    9    4    3    3
 0.1631272208770643    9    4    4    4
 0.003448338943513406    9    4    5    1
 0.02848857103109299    9    4    5    2
 0.1596495701929719    9    4    5    5
 1.020918310007581e-05    9    4    6    1
 0.009674604127196076    9    4    6    2
 0.01636273963519386    9    4    6    5
 0.1791171214058935    9    4    6    6
 0.009674604127196087    9    4    7    1
 0.0778120446622004    9    4    7    2
 0.0816945472288521    9    4    7    5
 0.04075341946444671    9    4    7    6
 0.1575525539968283    9    4    7    7
 0.04392433588861339    9    4    8    3
 0.1498806334641034    9    4    8    8
 0.04905407581456889    9    4    9    4
 0.003448338943513405    9    5    4    1
 0.02848857103109299    9    5    4    2
 0.01639223043534872    9    5    5    4
 0.0007396262327085607    9    5    6    4
 0.01846445652340432    9    5    7    4
 0.0002940482526525908    9    5    9    1
 0.02196927649648727    9    5    9    2
 0.02802396039062087    9    5    9    5
 0.0004213390555807955    9    6    4    1
 0.004617965998757001    9    6    4    2
 0.003070803323663563    9    6    5    4
 0.0009163091474831622    9    6    6    4
 0.004604025592327415    9    6    7    4
 3.807306191769347e-05    9    6    9    1
 0.008185600762197423    9    6    9    2
 0.01207256379202778    9    6    9    5
 0.0220747747811187    9    6    9    6
 0.004617965998757    9    7    4    1
 0.0452883181190115    9    7    4    2
 0.02329105402261274    9    7    5    4
 0.001797730104517053    9    7    6    4
 0.03345399164635474    9    7    7    4
 0.0003735740871066056    9    7    9    1
 0.04511258785740209    9    7    9    2
 0.05985202680207294    9    7    9    5
 0.03361115550043672    9    7    9    6
 0.1565756828827412    9    7    9    7
 0.006164924130117191    9    8    4    3
 0.00662329370648035    9    8    8    4
 0.00662329370648035    9    8    9    3
 0.04113297360957149    9    8    9    8
 0.4386536583431864    9    9    1    1
 0.1006096595595765    9    9    2    1
 0.4290070573481559    9    9    2    2
 0.4052499402856438    9    9    3    3
 0.4175797885458786    9    9    4    4
 0.01049990482206383    9    9    5    1
 0.1135301370730885    9    9    5    2
 0.4641900939681179    9    9    5    5
 3.371428273517315e-05    9    9    6    1
 0.0489096885037541    9    9    6    2
 0.0828959940132056    9    9    6    5
 0.968488270573396    9    9    6    6
 0.02420727573118392    9    9    7    1
 0.2662056330424323    9    9    7    2
 0.3099136418732792    9    9    7    5
 0.2144504389696152    9    9    7    6
 0.7083977368496046    9    9    7    7
 0.1498806334641037    9    9    8    3
 0.6809751824948523    9    9    8    8
 0.1631272208770643    9    9    9    4
 0.7632411297139956    9    9    9    9
 -0.2427470674813602   10    1    1    1
 -0.04142915604208635   10    1    2    1
 -0.08317709550986328   10    1    2    2
 -0.08289599401320578   10    1    3    3
 -0.08289599401320578   10    1    4    4
 -0.002690630113569395   10    1    5    1
 -0.005134318251615646   10    1    5    2
 -0.08373931424784126   10    1    5    5
 -4.814021134723228e-06   10    1    6    1
 -0.002562081593950007   10    1    6    2
 -0.004329120741808782   10    1    6    5
 -0.04559074689691905   10    1    6    6
 -0.009958025360015374   10    1    7    1
 -0.0303427419680887   10    1    7    2
 -0.02728183093880061   10    1    7    5
 -0.01045825582179166   10    1    7    6
 -0.04433136771610475   10    1    7    7
 -0.01636273963519387   10    1    8    3
 -0.04091029793282663   10    1    8    8
 -0.01636273963519387   10    1    9    4
 -0.04091029793282663   10    1    9    9
 0.01696597011824208   10    1   10    1
 -0.4156454361101044   10    2    1    1
 -0.09245216502265569   10    2    2    1
 -0.3152255399572103   10    2    2    2
 -0.30991364187328   10    2    3    3
 -0.30991364187328   10    2    4    4
 -0.009229687869984425   10    2    5    1
 -0.05472802908995433   10    2    5    2
 -0.3258487653950962   10    2    5    5
 -2.259157508290544e-05   10    2    6    1
 -0.01613775765885715   10    2    6    2
 -0.0272818309388006   10    2    6    5
 -0.2842036068659652   10    2    6    6
 -0.02210411261712023   10    2    7    1
 -0.1433797097234444   10    2    7    2
 -0.1471560204283245   10    2    7    5
 -0.06461415143124895   10    2    7    6
 -0.2482053370621746   10    2    7    7
 -0.08169454722885207   10    2    8    3
 -0.2369449224339791   10    2    8    8
 -0.08169454722885207   10    2    9    4
 -0.2369449224339791   10    2    9    9
 0.03742842411031995   10    2   10    1
 0.1645895323985812   10    2   10    2
 -0.01207256379202779   10    3    3    1
 -0.05985202680207291   10    3    3    2
 -0.01292673072239705   10    3    5    3
 -0.000294048252652591   10    3    6    3
 -0.02196927649648723   10    3    7    3
 -0.0007396262327085606   10    3    8    1
 -0.01846445652340427   10    3    8    2
 -0.01877434832056204   10    3    8    5
 -0.003448338943513403   10    3    8    6
 -0.02848857103109296   10    3    8    7
 0.02802396039062086   10    3   10    3
 -0.01207256379202779   10    4    4    1
 -0.05985202680207291   10    4    4    2
 -0.01292673072239705   10    4    5    4
 -0.000294048252652591   10    4    6    4
 -0.02196927649648723   10    4    7    4
 -0.0007396262327085606   10    4    9    1
 -0.01846445652340427   10    4    9    2
 -0.01877434832056204   10    4    9    5
 -0.003448338943513403   10    4    9    6
 -0.02848857103109296   10    4    9    7
 0.02802396039062086   10    4   10    4
 -0.2899369882261313   10    5    1    1
 -0.06552396112232708   10    5    2    1
 -0.2343117412825311   10    5    2    2
 -0.2225264475794788   10    5    3    3
 -0.2225264475794788   10    5    4    4
 -0.01746410816028792   10    5    5    1
 -0.09398727328981783   10    5    5    2
 -0.2578821062785711   10    5    5    5
 -2.375056109739201e-05   10    5    6    1
 -0.01675643508953726   10    5    6    2
 -0.02833448221198645   10    5    6    5
 -0.2899369882261316   10    5    6    6
 -0.01675643508953725   10    5    7    1
 -0.1288436271250838   10    5    7    2
 -0.1466740231946073   10    5    7    5
 -0.0655239611223271   10    5    7    6
 -0.234311741282531   10    5    7    7
 -0.07140998976403037   10    5    8    3
 -0.2225264475794784   10    5    8    8
 -0.07140998976403037   10    5    9    4
 -0.2225264475794784   10    5    9    9
 0.02833448221198646   10    5   10    1
 0.1466740231946072   10    5   10    2
 0.1524249523559214   10    5   10    5
 -0.01425427450431563   10    6    1    1
 -0.003269429275831402   10    6    2    1
 -0.01251837452063768   10    6    2    2
 -0.0104999048220638   10    6    3    3
 -0.0104999048220638   10    6    4    4
 -0.0008415943456406578   10    6    5    1
 -0.007077867313320849   10    6    5    2
 -0.01655739010302262   10    6    5    5
 -2.724397361056805e-06   10    6    6    1
 -0.001587832764385212   10    6    6    2
 -0.002690630113569386   10    6    6    5
 -0.0008511461006860274   10    6    7    1
 -0.007420624325425437   10    6    7    2
 -0.009229687869984404   10    6    7    5
 -0.003448338943513402   10    6    8    3
 -0.003448338943513402   10    6    9    4
 0.001437375303863789   10    6   10    1
 0.01308367882215228   10    6   10    2
 0.01746410816028794   10    6   10    5
 0.0220747747811187   10    6   10    6
 -0.1590153477845007   10    7    1    1
 -0.03572159003126007   10    7    2    1
 -0.1202799452822887   10    7    2    2
 -0.1135301370730885   10    7    3    3
 -0.1135301370730885   10    7    4    4
 -0.007077867313320849   10    7    5    1
 -0.04267978382175011   10    7    5    2
 -0.1337803996105916   10    7    5    5
 -1.321713503086931e-05   10    7    6    1
 -0.003086879214619281   10    7    6    2
 -0.005134318251615674   10    7    6    5
 -0.008947532807548403   10    7    7    1
 -0.05271977135064723   10    7    7    2
 -0.05472802908995434   10    7    7    5
 -0.02848857103109301   10    7    8    3
 -0.02848857103109301   10    7    9    4
 0.01513334718077675   10    7   10    1
 0.08477145044825365   10    7   10    2
 0.09398727328981793   10    7   10    5
 0.03361115550043672   10    7   10    6
 0.1565756828827412   10    7   10    7
 -0.003070803323663565   10    8    3    1
 -0.02329105402261276   10    8    3    2
 -0.01193361495940449   10    8    5    3
 -0.0003055090884962133   10    8    6    3
 -0.01202320682375158   10    8    7    3
 -0.0002518194863422803   10    8    8    1
 -0.01127971723431972   10    8    8    2
 -0.01292673072239705   10    8    8    5
 0.01639223043534874   10    8   10    3
 0.04113297360957149   10    8   10    8
 -0.003070803323663565   10    9    4    1
 -0.02329105402261276   10    9    4    2
 -0.01193361495940449   10    9    5    4
 -0.0003055090884962133   10    9    6    4
 -0.01202320682375158   10    9    7    4
 -0.0002518194863422803   10    9    9    1
 -0.01127971723431972   10    9    9    2
 -0.01292673072239705   10    9    9    5
 0.01639223043534874   10    9   10    4
 0.04113297360957149   10    9   10    9
 0.547223309430702   10   10    1    1
 0.1242510874453671   10   10    2    1
 0.4864161099310146   10   10    2    2
 0.4641900939681171   10   10    3    3
 0.4641900939681171   10   10    4    4
 0.0165573901030226   10   10    5    1
 0.1337803996105914   10   10    5    2
 0.5308681078791713   10   10    5    5
 4.241903548844947e-05   10   10    6    1
 0.04938291077468165   10   10    6    2
 0.08373931424784106   10   10    6    5
 0.968488270573396   10   10    6    6
 0.03026299952255494   10   10    7    1
 0.2829267141742444   10   10    7    2
 0.3258487653950962   10   10    7    5
 0.2144504389696152   10   10    7    6
 0.7083977368496046   10   10    7    7
 0.1596495701929722   10   10    8    3
 0.6809751824948523   10   10    8    8
 0.1596495701929722   10   10    9    4
 0.6809751824948523   10   10    9    9
 -0.05117356324181638   10   10   10    1
 -0.2707257346449689   10   10   10    2
 -0.2578821062785702   10   10   10    5
 0.7632411297139957   10   10   10   10
 -27.81218781456122    1    1  0  0
 -6.10010693343439    2    1  0  0
 -9.520356683641744    2    2  0  0
 -7.994289302277557    3    3  0  0
 -7.994289302277557    4    4  0  0
 -0.09978037960620381    5    1  0  0
 -1.120141011896414    5    2  0  0
 -8.766345695581695    5    5  0  0
 -0.001654696855169145    6    1  0  0
 -1.416721440406332    6    2  0  0
 -2.397092259525283    6    5  0  0
 -27.81218781456122    6    6  0  0
 -1.416721440406345    7    1  0  0
 -4.600707515596923    7    2  0  0
 -4.649412761560326    7    5  0  0
 -6.10010693343439    7    6  0  0
 -9.520356683641745    7    7  0  0
 -2.34401037008387    8    3  0  0
 -7.994289302277557    8    8  0  0
 -2.34401037008387    9    4  0  0
 -7.994289302277557    9    9  0  0
 2.397092259525285   10    1  0  0
 4.649412761560326   10    2  0  0
 3.545314570497721   10    5  0  0
 0.09978037960620094   10    6  0  0
 1.120141011896417   10    7  0  0
 -8.766345695581695   10   10  0  0
 0  0  0  0  0
