 &FCI NORB=  10,NELEC= 2,MS2=0,
  ORBSYM=1,1,1,1,1,1,1,1,1,1,
  ISYM=1,
 &END
 0.8972518022547112    1    1    1    1
 0.5046992833253477    2    1    1    1
 0.3000159499634743    2    1    2    1
 0.5073648772722146    2    2    1    1
 0.3240224592888291    2    2    2    1
 0.3941258992475499    2    2    2    2
 0.1526080826029482    3    1    3    1
 0.1013539444951886    3    2    3    1
 0.07246155524270569    3    2    3    2
 0.7750370389423151    3    3    1    1
 0.4620819348512404    3    3    2    1
 0.4910730839055906    3    3    2    2
 0.7857187089967245    3    3    3    3
 0.1526080826029482    4    1    4    1
 0.1013539444951886    4    2    4    1
 0.07246155524270569    4    2    4    2
 0.04810522708143181    4    3    4    3
 0.7750370389423151    4    4    1    1
 0.4620819348512404    4    4    2    1
 0.4910730839055906    4    4    2    2
 0.6895082548338608    4    4    3    3
 0.7857187089967245    4    4    4    4
 0.1526080826029482    5    1    5    1
 0.1013539444951886    5    2    5    1
 0.07246155524270569    5    2    5    2
 0.04810522708143181    5    3    5    3
 0.04810522708143181    5    4    5    4
 0.7750370389423151    5    5    1    1
 0.4620819348512404    5    5    2    1
 0.4910730839055906    5    5    2    2
 0.6895082548338608    5    5    3    3
 0.6895082548338608    5    5    4    4
 0.7857187089967244    5    5    5    5
 0.4451582536019058    6    1    1    1
 0.2616321022140964    6    1    2    1
 0.276977284392282    6    1    2    2
 0.3962822124150951    6    1    3    3
 0.3962822124150951    6    1    4    4
 0.06891994424176728    6    1    5    1
 0.04904273897586983    6    1    5    2
 0.420095942306965    6    1    5    5
 0.2672577069051667    6    1    6    1
 0.3462728843977733    6    2    1    1
 0.2155753532201252    6    2    2    1
 0.2484148757260992    6    2    2    2
 0.3229744023027742    6    2    3    3
 0.3229744023027742    6    2    4    4
 0.06134184870762093    6    2    5    1
 0.04778293859210422    6    2    5    2
 0.3456774190154553    6    2    5    5
 0.2236841220478994    6    2    6    1
 0.203586523264324    6    2    6    2
 0.07219806480285    6    3    3    1
 0.05000402975720734    6    3    3    2
 0.01927907801417827    6    3    5    3
 0.04448162338767389    6    3    6    3
 0.07219806480285    6    4    4    1
 0.05000402975720734    6    4    4    2
 0.01927907801417827    6    4    5    4
 0.04448162338767389    6    4    6    4
 0.3738173495264462    6    5    1    1
 0.2294255255010164    6    5    2    1
 0.2538655331911445    6    5    2    2
 0.3368892783368221    6    5    3    3
 0.3368892783368221    6    5    4    4
 0.1274234457817587    6    5    5    1
 0.09100147528986843    6    5    5    2
 0.3964521193040136    6    5    5    5
 0.2736590141892973    6    5    6    1
 0.2412316768260068    6    5    6    2
 0.3262424332953439    6    5    6    5
 0.6204245298227993    6    6    1    1
 0.3886492638413442    6    6    2    1
 0.4474194107270248    6    6    2    2
 0.5661779363711607    6    6    3    3
 0.5661779363711607    6    6    4    4
 0.1644661804948849    6    6    5    1
 0.1266715607733766    6    6    5    2
 0.6619307190880694    6    6    5    5
 0.4451582536019056    6    6    6    1
 0.4116305266803154    6    6    6    2
 0.5246363911547782    6    6    6    5
 0.8972518022547112    6    6    6    6
 0.4116305266803153    7    1    1    1
 0.2453553106736615    7    1    2    1
 0.2660911067847301    7    1    2    2
 0.3772340793694148    7    1    3    3
 0.3772340793694148    7    1    4    4
 0.01884657086881229    7    1    5    1
 0.0141181225926377    7    1    5    2
 0.3787853489674207    7    1    5    5
 0.2236841220478994    7    1    6    1
 0.1871548055850234    7    1    6    2
 0.2062521429079888    7    1    6    5
 0.3462728843977733    7    1    6    6
 0.203586523264324    7    1    7    1
 0.4356961638512388    7    2    1    1
 0.2794205843176809    7    2    2    1
 0.3428667731529048    7    2    2    2
 0.4218831123380006    7    2    3    3
 0.4218831123380006    7    2    4    4
 0.02554856343763047    7    2    5    1
 0.02152516078460418    7    2    5    2
 0.4243869632191707    7    2    5    5
 0.2536577264877815    7    2    6    1
 0.2345208544114474    7    2    6    2
 0.2468602034545263    7    2    6    5
 0.4356961638512388    7    2    6    6
 0.2345208544114473    7    2    7    1
 0.3103033599585708    7    2    7    2
 0.08156346473724066    7    3    3    1
 0.05843991302142532    7    3    3    2
 0.006219983022487374    7    3    5    3
 0.04312130651645855    7    3    6    3
 0.04811233092357918    7    3    7    3
 0.08156346473724066    7    4    4    1
 0.05843991302142532    7    4    4    2
 0.006219983022487374    7    4    5    4
 0.04312130651645855    7    4    6    4
 0.04811233092357918    7    4    7    4
 0.1040792626078404    7    5    1    1
 0.06513016696626966    7    5    2    1
 0.07451246798126646    7    5    2    2
 0.09630013709809951    7    5    3    3
 0.09630013709809951    7    5    4    4
 0.08513571011634748    7    5    5    1
 0.0612535704590853    7    5    5    2
 0.1089750553312918    7    5    5    5
 0.1001603794985998    7    5    6    1
 0.09221633841563044    7    5    6    2
 0.1342475749567631    7    5    6    5
 0.2075544918642007    7    5    6    6
 0.06556964020170285    7    5    7    1
 0.08333572661421919    7    5    7    2
 0.06795068724293525    7    5    7    5
 0.3886492638413442    7    6    1    1
 0.2455831070506813    7    6    2    1
 0.290215828533775    7    6    2    2
 0.363815882460251    7    6    3    3
 0.363815882460251    7    6    4    4
 0.07891947440816952    7    6    5    1
 0.0627525224280078    7    6    5    2
 0.3970002321438874    7    6    5    5
 0.2616321022140964    7    6    6    1
 0.2453553106736615    7    6    6    2
 0.2908068229902067    7    6    6    5
 0.5046992833253477    7    6    6    6
 0.2155753532201252    7    6    7    1
 0.2794205843176809    7    6    7    2
 0.1140210869500433    7    6    7    5
 0.3000159499634743    7    6    7    6
 0.4474194107270248    7    7    1    1
 0.290215828533775    7    7    2    1
 0.3648424231002906    7    7    2    2
 0.4338050858600713    7    7    3    3
 0.4338050858600713    7    7    4    4
 0.04833754482094886    7    7    5    1
 0.04123336172429646    7    7    5    2
 0.4429020786760766    7    7    5    5
 0.276977284392282    7    7    6    1
 0.2660911067847301    7    7    6    2
 0.2837026435698001    7    7    6    5
 0.5073648772722146    7    7    6    6
 0.2484148757260991    7    7    7    1
 0.3428667731529048    7    7    7    2
 0.1043960832681739    7    7    7    5
 0.3240224592888291    7    7    7    6
 0.3941258992475499    7    7    7    7
 0.06472948781178786    8    1    3    1
 0.04549619582550608    8    1    3    2
 0.02341005860686307    8    1    5    3
 0.04369295898268206    8    1    6    3
 0.0402966224009576    8    1    7    3
 0.04448162338767389    8    1    8    1
 0.05407586054284171    8    2    3    1
 0.0414800913513499    8    2    3    2
 0.02201872581259804    8    2    5    3
 0.04029662240095762    8    2    6    3
 0.03757082576099093    8    2    7    3
 0.04312130651645855    8    2    8    1
 0.04811233092357917    8    2    8    2
 0.3472796779745581    8    3    1    1
 0.2121134259595839    8    3    2    1
 0.2331841047462003    8    3    2    2
 0.3487976394524455    8    3    3    3
 0.3121056511563374    8    3    4    4
 0.05422122457175566    8    3    5    1
 0.04022800427268895    8    3    5    2
 0.3291279166183406    8    3    5    5
 0.210570360833949    8    3    6    1
 0.1816060948536017    8    3    6    2
 0.2133743283945516    8    3    6    5
 0.3472796779745581    8    3    6    6
 0.1816060948536017    8    3    7    1
 0.213699957570088    8    3    7    2
 0.08124849828427674    8    3    7    5
 0.2121134259595839    8    3    7    6
 0.2331841047462003    8    3    7    7
 0.1889871175795086    8    3    8    3
 0.01834599414805401    8    4    4    3
 0.01157063985180657    8    4    8    4
 0.05422122457175565    8    5    3    1
 0.04022800427268895    8    5    3    2
 0.03536825961005722    8    5    5    3
 0.04703420186627687    8    5    6    3
 0.03802885833780412    8    5    7    3
 0.05091831082502339    8    5    8    1
 0.05200202658699977    8    5    8    2
 0.06652809364392737    8    5    8    5
 0.07469859451156564    8    6    3    1
 0.05746386343014182    8    6    3    2
 0.04188184864335366    8    6    5    3
 0.06472948781178786    8    6    6    3
 0.05407586054284169    8    6    7    3
 0.07219806480284999    8    6    8    1
 0.08156346473724062    8    6    8    2
 0.09537132103607074    8    6    8    5
 0.1526080826029482    8    6    8    6
 0.05746386343014183    8    7    3    1
 0.04506330756471728    8    7    3    2
 0.02615347445319651    8    7    5    3
 0.04549619582550609    8    7    6    3
 0.04148009135134989    8    7    7    3
 0.05000402975720734    8    7    8    1
 0.0584399130214253    8    7    8    2
 0.06219560890081201    8    7    8    5
 0.1013539444951886    8    7    8    6
 0.07246155524270569    8    7    8    7
 0.5661779363711605    8    8    1    1
 0.3638158824602509    8    8    2    1
 0.4338050858600713    8    8    2    2
 0.5572677648800821    8    8    3    3
 0.5207411321617059    8    8    4    4
 0.1345949180737158    8    8    5    1
 0.1088367595764084    8    8    5    2
 0.5913728086109346    8    8    5    5
 0.3962822124150951    8    8    6    1
 0.3772340793694148    8    8    6    2
 0.450772291303035    8    8    6    5
 0.7750370389423151    8    8    6    6
 0.3229744023027742    8    8    7    1
 0.4218831123380006    8    8    7    2
 0.184333770552628    8    8    7    5
 0.4620819348512404    8    8    7    6
 0.4910730839055906    8    8    7    7
 0.3487976394524455    8    8    8    3
 0.7857187089967245    8    8    8    8
 0.06472948781178786    9    1    4    1
 0.04549619582550608    9    1    4    2
 0.02341005860686307    9    1    5    4
 0.04369295898268206    9    1    6    4
 0.0402966224009576    9    1    7    4
 0.04448162338767389    9    1    9    1
 0.05407586054284171    9    2    4    1
 0.0414800913513499    9    2    4    2
 0.02201872581259804    9    2    5    4
 0.04029662240095762    9    2    6    4
 0.03757082576099093    9    2    7    4
 0.04312130651645855    9    2    9    1
 0.04811233092357917    9    2    9    2
 0.01834599414805401    9    3    4    3
 0.01157063985180657    9    3    8    4
 0.01157063985180657    9    3    9    3
 0.3472796779745581    9    4    1    1
 0.2121134259595839    9    4    2    1
 0.2331841047462003    9    4    2    2
 0.3121056511563374    9    4    3    3
 0.3487976394524455    9    4    4    4
 0.05422122457175566    9    4    5    1
 0.04022800427268895    9    4    5    2
 0.3291279166183406    9    4    5    5
 0.210570360833949    9    4    6    1
 0.1816060948536017    9    4    6    2
 0.2133743283945516    9    4    6    5
 0.3472796779745581    9    4    6    6
 0.1816060948536017    9    4    7    1
 0.213699957570088    9    4    7    2
 0.08124849828427674    9    4    7    5
 0.2121134259595839    9    4    7    6
 0.2331841047462003    9    4    7    7
 0.1658458378758954    9    4    8    3
 0.3121056511563374    9    4    8    8
 0.1889871175795086    9    4    9    4
 0.05422122457175565    9    5    4    1
 0.04022800427268895    9    5    4    2
 0.03536825961005722    9    5    5    4
 0.04703420186627687    9    5    6    4
 0.03802885833780412    9    5    7    4
 0.05091831082502339    9    5    9    1
 0.05200202658699977    9    5    9    2
 0.06652809364392737    9    5    9    5
 0.07469859451156564    9    6    4    1
 0.05746386343014182    9    6    4    2
 0.04188184864335366    9    6    5    4
 0.06472948781178786    9    6    6    4
 0.05407586054284169    9    6    7    4
 0.07219806480284999    9    6    9    1
 0.08156346473724062    9    6    9    2
 0.09537132103607074    9    6    9    5
 0.1526080826029482    9    6    9    6
 0.05746386343014183    9    7    4    1
 0.04506330756471728    9    7    4    2
 0.02615347445319651    9    7    5    4
 0.04549619582550609    9    7    6    4
 0.04148009135134989    9    7    7    4
 0.05000402975720734    9    7    9    1
 0.0584399130214253    9    7    9    2
 0.06219560890081201    9    7    9    5
 0.1013539444951886    9    7    9    6
 0.07246155524270569    9    7    9    7
 0.01826331635918811    9    8    4    3
 0.01834599414805401    9    8    8    4
 0.01834599414805401    9    8    9    3
 0.04810522708143181    9    8    9    8
 0.5661779363711605    9    9    1    1
 0.3638158824602509    9    9    2    1
 0.4338050858600713    9    9    2    2
 0.5207411321617059    9    9    3    3
 0.5572677648800821    9    9    4    4
 0.1345949180737158    9    9    5    1
 0.1088367595764084    9    9    5    2
 0.5913728086109346    9    9    5    5
 0.3962822124150951    9    9    6    1
 0.3772340793694148    9    9    6    2
 0.450772291303035    9    9    6    5
 0.7750370389423151    9    9    6    6
 0.3229744023027742    9    9    7    1
 0.4218831123380006    9    9    7    2
 0.184333770552628    9    9    7    5
 0.4620819348512404    9    9    7    6
 0.4910730839055906    9    9    7    7
 0.3121056511563374    9    9    8    3
 0.6895082548338608    9    9    8    8
 0.3487976394524455    9    9    9    4
 0.7857187089967245    9    9    9    9
 -0.5246363911547782   10    1    1    1
 -0.2908068229902066   10    1    2    1
 -0.2837026435698002   10    1    2    2
 -0.450772291303035   10    1    3    3
 -0.450772291303035   10    1    4    4
 -0.04460855568212439   10    1    5    1
 -0.02644455686847367   10    1    5    2
 -0.4461659122003488   10    1    5    5
 -0.2736590141892974   10    1    6    1
 -0.2062521429079888   10    1    6    2
 -0.2423074554150383   10    1    6    5
 -0.3738173495264463   10    1    6    6
 -0.2412316768260069   10    1    7    1
 -0.2468602034545263   10    1    7    2
 -0.08001861527016765   10    1    7    5
 -0.2294255255010165   10    1    7    6
 -0.2538655331911446   10    1    7    7
 -0.2133743283945516   10    1    8    3
 -0.3368892783368222   10    1    8    8
 -0.2133743283945516   10    1    9    4
 -0.3368892783368222   10    1    9    9
 0.3262424332953439   10    1   10    1
 -0.2075544918642009   10    2    1    1
 -0.1140210869500433   10    2    2    1
 -0.104396083268174   10    2    2    2
 -0.1843337705526281   10    2    3    3
 -0.1843337705526281   10    2    4    4
 -0.01167482886477512   10    2    5    1
 -0.003708556191574065   10    2    5    2
 -0.1722905093777246   10    2    5    5
 -0.1001603794985998   10    2    6    1
 -0.0655696402017029   10    2    6    2
 -0.08001861527016772   10    2    6    5
 -0.1040792626078405   10    2    6    6
 -0.09221633841563052   10    2    7    1
 -0.08333572661421926   10    2    7    2
 -0.02351610895216902   10    2    7    5
 -0.06513016696626978   10    2    7    6
 -0.07451246798126653   10    2    7    7
 -0.0812484982842768   10    2    8    3
 -0.09630013709809966   10    2    8    8
 -0.0812484982842768   10    2    9    4
 -0.09630013709809966   10    2    9    9
 0.1342475749567632   10    2   10    1
 0.06795068724293529   10    2   10    2
 -0.09537132103607074   10    3    3    1
 -0.06219560890081201   10    3    3    2
 -0.01691488835283301   10    3    5    3
 -0.05091831082502343   10    3    6    3
 -0.0520020265869998   10    3    7    3
 -0.04703420186627686   10    3    8    1
 -0.03802885833780412   10    3    8    2
 -0.04338681394031423   10    3    8    5
 -0.05422122457175567   10    3    8    6
 -0.04022800427268896   10    3    8    7
 0.06652809364392739   10    3   10    3
 -0.09537132103607074   10    4    4    1
 -0.06219560890081201   10    4    4    2
 -0.01691488835283301   10    4    5    4
 -0.05091831082502343   10    4    6    4
 -0.0520020265869998   10    4    7    4
 -0.04703420186627686   10    4    9    1
 -0.03802885833780412   10    4    9    2
 -0.04338681394031423   10    4    9    5
 -0.05422122457175567   10    4    9    6
 -0.04022800427268896   10    4    9    7
 0.06652809364392739   10    4   10    4
 -0.2071978670403925   10    5    1    1
 -0.1172014312171787   10    5    2    1
 -0.1139429028324229   10    5    2    2
 -0.1803483675862571   10    5    3    3
 -0.1803483675862571   10    5    4    4
 -0.0835072644889598   10    5    5    1
 -0.0506612010559409   10    5    5    2
 -0.195382632273308   10    5    5    5
 -0.1388058159145176   10    5    6    1
 -0.1041544527914076   10    5    6    2
 -0.1532294833640959   10    5    6    5
 -0.2071978670403925   10    5    6    6
 -0.1041544527914076   10    5    7    1
 -0.1061248300580936   10    5    7    2
 -0.06670640910151115   10    5    7    5
 -0.1172014312171787   10    5    7    6
 -0.1139429028324229   10    5    7    7
 -0.10894143108471   10    5    8    3
 -0.1803483675862571   10    5    8    8
 -0.10894143108471   10    5    9    4
 -0.1803483675862571   10    5    9    9
 0.1532294833640959   10    5   10    1
 0.06670640910151117   10    5   10    2
 0.1092724300031125   10    5   10    5
 -0.164466180494885   10    6    1    1
 -0.07891947440816952   10    6    2    1
 -0.04833754482094886   10    6    2    2
 -0.1345949180737159   10    6    3    3
 -0.1345949180737159   10    6    4    4
 -0.02158796919859813   10    6    5    1
 -0.00341890390986849   10    6    5    2
 -0.1246531329836752   10    6    5    5
 -0.06891994424176728   10    6    6    1
 -0.0188465708688123   10    6    6    2
 -0.04460855568212439   10    6    6    5
 -0.06134184870762093   10    6    7    1
 -0.02554856343763047   10    6    7    2
 -0.01167482886477512   10    6    7    5
 -0.05422122457175568   10    6    8    3
 -0.05422122457175568   10    6    9    4
 0.1274234457817587   10    6   10    1
 0.08513571011634745   10    6   10    2
 0.08350726448895981   10    6   10    5
 0.1526080826029482   10    6   10    6
 -0.1266715607733766   10    7    1    1
 -0.06275252242800779   10    7    2    1
 -0.04123336172429646   10    7    2    2
 -0.1088367595764084   10    7    3    3
 -0.1088367595764084   10    7    4    4
 -0.00341890390986849   10    7    5    1
 0.004472529814577623   10    7    5    2
 -0.09295818053565397   10    7    5    5
 -0.04904273897586983   10    7    6    1
 -0.01411812259263769   10    7    6    2
 -0.02644455686847367   10    7    6    5
 -0.04778293859210423   10    7    7    1
 -0.02152516078460418   10    7    7    2
 -0.00370855619157407   10    7    7    5
 -0.04022800427268897   10    7    8    3
 -0.04022800427268897   10    7    9    4
 0.09100147528986843   10    7   10    1
 0.0612535704590853   10    7   10    2
 0.05066120105594091   10    7   10    5
 0.1013539444951886   10    7   10    6
 0.07246155524270569   10    7   10    7
 -0.04188184864335368   10    8    3    1
 -0.02615347445319651   10    8    3    2
 -0.01520006617772045   10    8    5    3
 -0.0234100586068631   10    8    6    3
 -0.02201872581259806   10    8    7    3
 -0.01927907801417829   10    8    8    1
 -0.006219983022487404   10    8    8    2
 -0.01691488835283303   10    8    8    5
 0.03536825961005725   10    8   10    3
 0.04810522708143181   10    8   10    8
 -0.04188184864335368   10    9    4    1
 -0.02615347445319651   10    9    4    2
 -0.01520006617772045   10    9    5    4
 -0.0234100586068631   10    9    6    4
 -0.02201872581259806   10    9    7    4
 -0.01927907801417829   10    9    9    1
 -0.006219983022487404   10    9    9    2
 -0.01691488835283303   10    9    9    5
 0.03536825961005725   10    9   10    4
 0.04810522708143181   10    9   10    9
 0.6619307190880693   10   10    1    1
 0.3970002321438874   10   10    2    1
 0.4429020786760767   10   10    2    2
 0.5913728086109347   10   10    3    3
 0.5913728086109347   10   10    4    4
 0.1246531329836752   10   10    5    1
 0.09295818053565394   10   10    5    2
 0.634048904012911   10   10    5    5
 0.4200959423069651   10   10    6    1
 0.3787853489674206   10   10    6    2
 0.4461659122003488   10   10    6    5
 0.7750370389423151   10   10    6    6
 0.3456774190154554   10   10    7    1
 0.4243869632191706   10   10    7    2
 0.1722905093777246   10   10    7    5
 0.4620819348512404   10   10    7    6
 0.4910730839055906   10   10    7    7
 0.3291279166183407   10   10    8    3
 0.6895082548338608   10   10    8    8
 0.3291279166183407   10   10    9    4
 0.6895082548338608   10   10    9    9
 -0.3964521193040137   10   10   10    1
 -0.108975055331292   10   10   10    2
 -0.195382632273308   10   10   10    5
 0.7857187089967244   10   10   10   10
 -1.093014665648482    1    1  0  0
 -0.8784517210464936    2    1  0  0
 -0.8543243809195242    2    2  0  0
 0.317636570480651    3    3  0  0
 0.317636570480651    4    4  0  0
 -0.2615439118725094    5    1  0  0
 -0.1975943734140443    5    2  0  0
 0.06820395546958435    5    5  0  0
 -0.8962215594171383    6    1  0  0
 -0.7758194603162227    6    2  0  0
 -0.571132726070259    6    5  0  0
 -1.093014665648482    6    6  0  0
 -0.7758194603162226    7    1  0  0
 -0.8016543271985709    7    2  0  0
 -0.3270561362673109    7    5  0  0
 -0.8784517210464934    7    6  0  0
 -0.8543243809195242    7    7  0  0
 -0.142673798443633    8    3  0  0
 0.317636570480651    8    8  0  0
 -0.142673798443633    9    4  0  0
 0.317636570480651    9    9  0  0
 0.5711327260702592   10    1  0  0
 0.3270561362673113   10    2  0  0
 -0.2580241295442463   10    5  0  0
 0.2615439118725094   10    6  0  0
 0.1975943734140443   10    7  0  0
 0.06820395546958391   10   10  0  0
 0  0  0  0  0
