 &FCI NORB=  10,NELEC=14,MS2=0,
  ORBSYM=1,1,1,1,1,1,1,1,1,1,
  ISYM=1,
 &END
 3.541948133222505    1    1    1    1
 0.5769212864325508    2    1    1    1
 0.111888115070703    2    1    2    1
 0.854681762966415    2    2    1    1
 0.2052838626516168    2    2    2    1
 0.6247087997133394    2    2    2    2
 0.02029646470965126    3    1    3    1
 0.03085774848840028    3    2    3    1
 0.1379962760623612    3    2    3    2
 0.8524360780789894    3    3    1    1
 0.2053350787202688    3    3    2    1
 0.6245683716242042    3    3    2    2
 0.6728327205216592    3    3    3    3
 0.02029646470965126    4    1    4    1
 0.03085774848840028    4    2    4    1
 0.1379962760623612    4    2    4    2
 0.03626864143289545    4    3    4    3
 0.8524360780789894    4    4    1    1
 0.2053350787202688    4    4    2    1
 0.6245683716242042    4    4    2    2
 0.6002954376558682    4    4    3    3
 0.6728327205216592    4    4    4    4
 0.02029646470965126    5    1    5    1
 0.03085774848840028    5    2    5    1
 0.1379962760623612    5    2    5    2
 0.03626864143289546    5    3    5    3
 0.03626864143289546    5    4    5    4
 0.8524360780789894    5    5    1    1
 0.2053350787202688    5    5    2    1
 0.6245683716242042    5    5    2    2
 0.6002954376558682    5    5    3    3
 0.6002954376558682    5    5    4    4
 0.6728327205216592    5    5    5    5
 4.283221420995574e-06    6    1    1    1
 1.062881948290499e-06    6    1    2    1
 3.694038557970254e-06    6    1    2    2
 3.317724419031731e-06    6    1    3    3
 3.317724419031731e-06    6    1    4    4
 2.211223329619675e-07    6    1    5    1
 1.488436972994502e-06    6    1    5    2
 4.439682694649516e-06    6    1    5    5
 8.780650415073006e-11    6    1    6    1
 0.02167055617977682    6    2    1    1
 0.005382132463212836    6    2    2    1
 0.02096108476612494    6    2    2    2
 0.01915925811735283    6    2    3    3
 0.01915925811735283    6    2    4    4
 0.000756176856410848    6    2    5    1
 0.007552033543615059    6    2    5    2
 0.02455095509564342    6    2    5    5
 3.777392389718067e-07    6    2    6    1
 0.004993377035378088    6    2    6    2
 1.859970589686534e-05    6    3    3    1
 0.0001814572378859838    6    3    3    2
 0.000129991017501071    6    3    5    3
 2.559991275509606e-05    6    3    6    3
 1.859970589686534e-05    6    4    4    1
 0.0001814572378859838    6    4    4    2
 0.000129991017501071    6    4    5    4
 2.559991275509606e-05    6    4    6    4
 0.03692059869816058    6    5    1    1
 0.009169657043821392    6    5    2    1
 0.03570395904766591    6    5    2    2
 0.03262746170967153    6    5    3    3
 0.03262746170967153    6    5    4    4
 0.00129070257163914    6    5    5    1
 0.01287960265922751    6    5    5    2
 0.04183409156407449    6    5    5    5
 6.461216532730918e-07    6    5    6    1
 0.008525137931695818    6    5    6    2
 0.01455585117189012    6    5    6    5
 0.4690431519677661    6    6    1    1
 0.1164926739118665    6    6    2    1
 0.4574332466757996    6    6    2    2
 0.4181134586429546    6    6    3    3
 0.4181134586429546    6    6    4    4
 0.01580830577109955    6    6    5    1
 0.1635787261250466    6    6    5    2
 0.5356509054742241    6    6    5    5
 8.032898677189773e-06    6    6    6    1
 0.142015069626989    6    6    6    2
 0.2425551109820293    6    6    6    5
 4.785065404705503    6    6    6    6
 0.1103555070043123    7    1    1    1
 0.02132248560165658    7    1    2    1
 0.03921714420283742    7    1    2    2
 0.03901356983127452    7    1    3    3
 0.03901356983127452    7    1    4    4
 0.001772612956500238    7    1    5    1
 0.003314955437290578    7    1    5    2
 0.03963894714187049    7    1    5    5
 2.349690884472426e-07    7    1    6    1
 0.001133181834573271    7    1    6    2
 0.001931003457832467    7    1    6    5
 0.02444109502504912    7    1    6    6
 0.004233415491296849    7    1    7    1
 0.2756175467391473    7    2    1    1
 0.0671359620343128    7    2    2    1
 0.224877948202249    7    2    2    2
 0.217713727440816    7    2    3    3
 0.217713727440816    7    2    4    4
 0.008075050796079886    7    2    5    1
 0.05424159043926278    7    2    5    2
 0.2389916580861289    7    2    5    5
 2.323177484010304e-06    7    2    6    1
 0.01533218053391783    7    2    6    2
 0.02611797736166233    7    2    6    5
 0.3420368917047883    7    2    6    6
 0.01383387325208268    7    2    7    1
 0.1166340757865619    7    2    7    2
 0.006276432333814854    7    3    3    1
 0.03231182586427194    7    3    3    2
 0.0105396999592791    7    3    5    3
 0.0001783729799113415    7    3    6    3
 0.01270425932949373    7    3    7    3
 0.006276432333814854    7    4    4    1
 0.03231182586427194    7    4    4    2
 0.0105396999592791    7    4    5    4
 0.0001783729799113415    7    4    6    4
 0.01270425932949373    7    4    7    4
 0.2883952303584824    7    5    1    1
 0.07106864321002232    7    5    2    1
 0.2500954374815467    7    5    2    2
 0.2371003469844735    7    5    3    3
 0.2371003469844735    7    5    4    4
 0.01281593727487647    7    5    5    1
 0.08185480969628064    7    5    5    2
 0.2758137027369878    7    5    5    5
 3.113618250274247e-06    7    5    6    1
 0.02102308126608155    7    5    6    2
 0.03581666854515083    7    5    6    5
 0.4711520169414463    7    5    6    6
 0.01519045464672756    7    5    7    1
 0.145835673497875    7    5    7    2
 0.1880854764286659    7    5    7    5
 0.1110243602110655    7    6    1    1
 0.0275742453609721    7    6    2    1
 0.1079659111254183    7    6    2    2
 0.09895982117112399    7    6    3    3
 0.09895982117112399    7    6    4    4
 0.003741838241613166    7    6    5    1
 0.03818801990254944    7    6    5    2
 0.1258793298747331    7    6    5    5
 1.847914576173317e-06    7    6    6    1
 0.02599101363865802    7    6    6    2
 0.04433872826235147    7    6    6    5
 0.7413803519734079    7    6    6    6
 0.005785229171523701    7    6    7    1
 0.07941511689812654    7    6    7    2
 0.1088847620230702    7    6    7    5
 0.1368733853543883    7    6    7    6
 0.4666195064690551    7    7    1    1
 0.1155798548534323    7    7    2    1
 0.4384729866938017    7    7    2    2
 0.4134931641989691    7    7    3    3
 0.4134931641989691    7    7    4    4
 0.01486351168736828    7    7    5    1
 0.1338994699714884    7    7    5    2
 0.4878896000191363    7    7    5    5
 5.547146232971746e-06    7    7    6    1
 0.04839920399305142    7    7    6    2
 0.08236993282256821    7    7    6    5
 1.11894686634247    7    7    6    6
 0.02407051704010553    7    7    7    1
 0.2797588821427162    7    7    7    2
 0.3686371235963228    7    7    7    5
 0.2566333947309737    7    7    7    6
 0.8172063215260582    7    7    7    7
 0.0008154045023665004    8    1    3    1
 0.001541529600636917    8    1    3    2
 0.0003171225097849125    8    1    5    3
 1.673993205924612e-06    8    1    6    3
 0.0003941021560458225    8    1    7    3
 4.025724784621003e-05    8    1    8    1
 0.004062529644727603    8    2    3    1
 0.02798757092605848    8    2    3    2
 0.01201475365963527    8    2    5    3
 0.0003507297844028604    8    2    6    3
 0.01414931799441941    8    2    7    3
 0.000289044956967723    8    2    8    1
 0.01837518964237458    8    2    8    2
 0.1475293859119702    8    3    1    1
 0.03638433372074311    8    3    2    1
 0.1289739998433407    8    3    2    2
 0.1318104713591957    8    3    3    3
 0.1218222777967496    8    3    4    4
 0.00361825883995861    8    3    5    1
 0.02793577442604109    8    3    5    2
 0.1331517405259069    8    3    5    5
 1.138695778368687e-06    8    3    6    1
 0.007728037160101396    8    3    6    2
 0.01315755232762345    8    3    6    5
 0.1706575950817519    8    3    6    6
 0.007393112206670154    8    3    7    1
 0.06472441210289911    8    3    7    2
 0.07960019595908724    8    3    7    5
 0.04016515634010043    8    3    7    6
 0.1522974349643552    8    3    7    7
 0.03925496605926052    8    3    8    3
 0.004994096781223073    8    4    4    3
 0.0020448497417603    8    4    8    4
 0.003618258839958611    8    5    3    1
 0.02793577442604109    8    5    3    2
 0.01632355951038043    8    5    5    3
 0.0005326539063198422    8    5    6    3
 0.01742502168455855    8    5    7    3
 0.000300109465844227    8    5    8    1
 0.02424275427055072    8    5    8    2
 0.03312767401959479    8    5    8    5
 0.0003766077604783025    8    6    3    1
 0.00385202578432713    8    6    3    2
 0.002723660173706916    8    6    5    3
 0.0007537335549218911    8    6    6    3
 0.004020069999689616    8    6    7    3
 3.274804709997591e-05    8    6    8    1
 0.008536271617463649    8    6    8    2
 0.01307054263875403    8    6    8    5
 0.02447741225809921    8    6    8    6
 0.004544272914039236    8    7    3    1
 0.04180086372825455    8    7    3    2
 0.02444741350735798    8    7    5    3
 0.001419843679986516    8    7    6    3
 0.03135844714983154    8    7    7    3
 0.000365365691771033    8    7    8    1
 0.05015337581474055    8    7    8    2
 0.07115423647193882    8    7    8    5
 0.03780860741636089    8    7    8    6
 0.1805183921046316    8    7    8    7
 0.4385451400064427    8    8    1    1
 0.1088999164038257    8    8    2    1
 0.4249932921519897    8    8    2    2
 0.4069941509479435    8    8    3    3
 0.3961864945770116    8    8    4    4
 0.01275054872796065    8    8    5    1
 0.1280427655313986    8    8    5    2
 0.4712631351523384    8    8    5    5
 5.115821846628932e-06    8    8    6    1
 0.04832140862003401    8    8    6    2
 0.0822121802910209    8    8    6    5
 1.115813812152425    8    8    6    6
 0.02251643809368733    8    8    7    1
 0.2758788244043639    8    8    7    2
 0.3639441842028027    8    8    7    5
 0.2566839858101024    8    8    7    6
 0.817022605320912    8    8    7    7
 0.1587501379330974    8    8    8    3
 0.8801590933750436    8    8    8    8
 0.0008154045023665004    9    1    4    1
 0.001541529600636917    9    1    4    2
 0.0003171225097849125    9    1    5    4
 1.673993205924612e-06    9    1    6    4
 0.0003941021560458225    9    1    7    4
 4.025724784621003e-05    9    1    9    1
 0.004062529644727603    9    2    4    1
 0.02798757092605848    9    2    4    2
 0.01201475365963527    9    2    5    4
 0.0003507297844028604    9    2    6    4
 0.01414931799441941    9    2    7    4
 0.000289044956967723    9    2    9    1
 0.01837518964237458    9    2    9    2
 0.004994096781223073    9    3    4    3
 0.0020448497417603    9    3    8    4
 0.0020448497417603    9    3    9    3
 0.1475293859119702    9    4    1    1
 0.03638433372074311    9    4    2    1
 0.1289739998433407    9    4    2    2
 0.1218222777967496    9    4    3    3
 0.1318104713591957    9    4    4    4
 0.00361825883995861    9    4    5    1
 0.02793577442604109    9    4    5    2
 0.1331517405259069    9    4    5    5
 1.138695778368687e-06    9    4    6    1
 0.007728037160101396    9    4    6    2
 0.01315755232762345    9    4    6    5
 0.1706575950817519    9    4    6    6
 0.007393112206670154    9    4    7    1
 0.06472441210289911    9    4    7    2
 0.07960019595908724    9    4    7    5
 0.04016515634010043    9    4    7    6
 0.1522974349643552    9    4    7    7
 0.03516526657573991    9    4    8    3
 0.1456228408746914    9    4    8    8
 0.03925496605926052    9    4    9    4
 0.003618258839958611    9    5    4    1
 0.02793577442604109    9    5    4    2
 0.01632355951038043    9    5    5    4
 0.0005326539063198422    9    5    6    4
 0.01742502168455855    9    5    7    4
 0.000300109465844227    9    5    9    1
 0.02424275427055072    9    5    9    2
 0.03312767401959479    9    5    9    5
 0.0003766077604783025    9    6    4    1
 0.00385202578432713    9    6    4    2
 0.002723660173706916    9    6    5    4
 0.0007537335549218911    9    6    6    4
 0.004020069999689616    9    6    7    4
 3.274804709997591e-05    9    6    9    1
 0.008536271617463649    9    6    9    2
 0.01307054263875403    9    6    9    5
 0.02447741225809921    9    6    9    6
 0.004544272914039236    9    7    4    1
 0.04180086372825455    9    7    4    2
 0.02444741350735798    9    7    5    4
 0.001419843679986516    9    7    6    4
 0.03135844714983154    9    7    7    4
 0.000365365691771033    9    7    9    1
 0.05015337581474055    9    7    9    2
 0.07115423647193882    9    7    9    5
 0.03780860741636089    9    7    9    6
 0.1805183921046316    9    7    9    7
 0.005403828185465977    9    8    4    3
 0.006563648529203063    9    8    8    4
 0.006563648529203063    9    8    9    3
 0.04744444511838376    9    8    9    8
 0.4385451400064427    9    9    1    1
 0.1088999164038257    9    9    2    1
 0.4249932921519897    9    9    2    2
 0.3961864945770116    9    9    3    3
 0.4069941509479435    9    9    4    4
 0.01275054872796065    9    9    5    1
 0.1280427655313986    9    9    5    2
 0.4712631351523384    9    9    5    5
 5.115821846628932e-06    9    9    6    1
 0.04832140862003401    9    9    6    2
 0.0822121802910209    9    9    6    5
 1.115813812152425    9    9    6    6
 0.02251643809368733    9    9    7    1
 0.2758788244043639    9    9    7    2
 0.3639441842028027    9    9    7    5
 0.2566839858101024    9    9    7    6
 0.817022605320912    9    9    7    7
 0.1456228408746914    9    9    8    3
 0.7852702031382766    9    9    8    8
 0.1587501379330974    9    9    9    4
 0.8801590933750436    9    9    9    9
 -0.1834303860067183   10    1    1    1
 -0.03540916714490289   10    1    2    1
 -0.06497194340076148   10    1    2    2
 -0.06459859228747315   10    1    3    3
 -0.06459859228747315   10    1    4    4
 -0.002846497455827635   10    1    5    1
 -0.005305266411862201   10    1    5    2
 -0.06574350841205212   10    1    5    5
 -3.886103128412613e-07   10    1    6    1
 -0.00187230811483358   10    1    6    2
 -0.003190517739789286   10    1    6    5
 -0.04038261748867613   10    1    6    6
 -0.00702284189283549   10    1    7    1
 -0.0228684808438078   10    1    7    2
 -0.02509383490395339   10    1    7    5
 -0.009558610925584876   10    1    7    6
 -0.03977214826221024   10    1    7    7
 -0.01221546560418792   10    1    8    3
 -0.0371996379777127   10    1    8    8
 -0.01221546560418792   10    1    9    4
 -0.0371996379777127   10    1    9    9
 0.01165130328446948   10    1   10    1
 -0.3110467847005012   10    2    1    1
 -0.07506270511134483   10    2    2    1
 -0.23188397072087   10    2    2    2
 -0.2258014382237869   10    2    3    3
 -0.2258014382237869   10    2    4    4
 -0.009316072047280504   10    2    5    1
 -0.05022271628036758   10    2    5    2
 -0.2438792185814977   10    2    5    5
 -2.334365636127775e-06   10    2    6    1
 -0.0113770976577165   10    2    6    2
 -0.01941943270067753   10    2    6    5
 -0.2404599385960171   10    2    6    6
 -0.01548241810121635   10    2    7    1
 -0.1066159682151115   10    2    7    2
 -0.1290875569722682   10    2    7    5
 -0.05657062984928608   10    2    7    6
 -0.2133487235356943   10    2    7    7
 -0.05862642811191675   10    2    8    3
 -0.2045422477665474   10    2    8    8
 -0.05862642811191675   10    2    9    4
 -0.2045422477665474   10    2    9    9
 0.02560343446188141   10    2   10    1
 0.1115979868282707   10    2   10    2
 -0.008920862453207471   10    3    3    1
 -0.04055687255114458   10    3    3    2
 -0.0111392010970527   10    3    5    3
 -0.0001316186601919109   10    3    6    3
 -0.0137170302468153   10    3    7    3
 -0.000544021158327647   10    3    8    1
 -0.01350661918694989   10    3    8    2
 -0.01574605947169826   10    3    8    5
 -0.002555243509516711   10    3    8    6
 -0.02294797366576253   10    3    8    7
 0.01650392623600486   10    3   10    3
 -0.008920862453207471   10    4    4    1
 -0.04055687255114458   10    4    4    2
 -0.0111392010970527   10    4    5    4
 -0.0001316186601919109   10    4    6    4
 -0.0137170302468153   10    4    7    4
 -0.000544021158327647   10    4    9    1
 -0.01350661918694989   10    4    9    2
 -0.01574605947169826   10    4    9    5
 -0.002555243509516711   10    4    9    6
 -0.02294797366576253   10    4    9    7
 0.01650392623600486   10    4   10    4
 -0.2676451343356671   10    5    1    1
 -0.06557562288632587   10    5    2    1
 -0.2114925690521366   10    5    2    2
 -0.1995618017238277   10    5    3    3
 -0.1995618017238277   10    5    4    4
 -0.01575871370868224   10    5    5    1
 -0.07919105854956084   10    5    5    2
 -0.2351669546548278   10    5    5    5
 -2.910048684524307e-06   10    5    6    1
 -0.01342491706301134   10    5    6    2
 -0.02293690995381152   10    5    6    5
 -0.2803178076837957   10    5    6    6
 -0.0144681312765449   10    5    7    1
 -0.1144652529976636   10    5    7    2
 -0.1453946794776038   10    5    7    5
 -0.06571899946513103   10    5    7    6
 -0.2353023592360901   10    5    7    7
 -0.06111265334103411   10    5    8    3
 -0.224347919154036   10    5    8    8
 -0.06111265334103411   10    5    9    4
 -0.224347919154036   10    5    9    9
 0.02389800197438632   10    5   10    1
 0.1203079006986933   10    5   10    2
 0.1409199783847447   10    5   10    5
 -0.01117429916938891   10    6    1    1
 -0.002775227337502593   10    6    2    1
 -0.009351390288793638   10    6    2    2
 -0.007714669839928221   10    6    3    3
 -0.007714669839928221   10    6    4    4
 -0.0007531389365418074   10    6    5    1
 -0.005516071648581585   10    6    5    2
 -0.01271728550058326   10    6    5    5
 -4.654757306600533e-07   10    6    6    1
 -0.001136726232137948   10    6    6    2
 -0.002071714153861002   10    6    6    5
 -0.0006400354589417007   10    6    7    1
 -0.005754828963348592   10    6    7    2
 -0.007975633211316146   10    6    7    5
 -0.002555243509516711   10    6    8    3
 -0.002555243509516711   10    6    9    4
 0.001057544859554859   10    6   10    1
 0.01168167585967579   10    6   10    2
 0.01716814239385347   10    6   10    5
 0.02447741225809921   10    6   10    6
 -0.1365249343206289   10    7    1    1
 -0.03339249616467758   10    7    2    1
 -0.09959590500831354   10    7    2    2
 -0.09162450285987814   10    7    3    3
 -0.09162450285987814   10    7    4    4
 -0.007845061355666748   10    7    5    1
 -0.04149834813543572   10    7    5    2
 -0.1156341983888283   10    7    5    5
 -1.992465314509771e-06   10    7    6    1
 -0.002134770811312685   10    7    6    2
 -0.003827346926836059   10    7    6    5
 -0.007423313311776281   10    7    7    1
 -0.04403508199726329   10    7    7    2
 -0.05336785444422738   10    7    7    5
 -0.02294797366576253   10    7    8    3
 -0.02294797366576253   10    7    9    4
 0.0122664905726421   10    7   10    1
 0.07781327241307058   10    7   10    2
 0.1013757914659023   10    7   10    5
 0.03780860741636089   10    7   10    6
 0.1805183921046316   10    7   10    7
 -0.002711201993499007   10    8    3    1
 -0.01842019449303677   10    8    3    2
 -0.01096505148792192   10    8    5    3
 -0.0001793408216707417   10    8    6    3
 -0.009427071876251194   10    8    7    3
 -0.0002314423460920721   10    8    8    1
 -0.009849077035962286   10    8    8    2
 -0.01264743494158672   10    8    8    5
 0.01328730407320858   10    8   10    3
 0.04744444511838376   10    8   10    8
 -0.002711201993499007   10    9    4    1
 -0.01842019449303677   10    9    4    2
 -0.01096505148792192   10    9    5    4
 -0.0001793408216707417   10    9    6    4
 -0.009427071876251194   10    9    7    4
 -0.0002314423460920721   10    9    9    1
 -0.009849077035962286   10    9    9    2
 -0.01264743494158672   10    9    9    5
 0.01328730407320858   10    9   10    4
 0.04744444511838376   10    9   10    9
 0.5217470684992697   10   10    1    1
 0.1287278270685511   10   10    2    1
 0.4649720407086619   10   10    2    2
 0.4367937923018145   10   10    3    3
 0.4367937923018145   10   10    4    4
 0.01904548820268838   10   10    5    1
 0.1453628202592951   10   10    5    2
 0.5207682170742181   10   10    5    5
 6.401882300738942e-06   10   10    6    1
 0.04856108037846889   10   10    6    2
 0.08269463733753843   10   10    6    5
 1.115813812152425   10   10    6    6
 0.02713635295324178   10   10    7    1
 0.287253800457014   10   10    7    2
 0.3777117570386332   10   10    7    5
 0.2566839858101024   10   10    7    6
 0.817022605320912   10   10    7    7
 0.1523464964186969   10   10    8    3
 0.7852702031382766   10   10    8    8
 0.1523464964186969   10   10    9    4
 0.7852702031382766   10   10    9    9
 -0.04484778310537811   10   10   10    1
 -0.2307240138638505   10   10   10    2
 -0.2569699051768288   10   10   10    5
 0.8801590933750436   10   10   10   10
 -21.51396460474455    1    1  0  0
 -5.210060157028105    2    1  0  0
 -8.381071173824283    2    2  0  0
 -7.015435170946261    3    3  0  0
 -7.015435170946261    4    4  0  0
 -0.1264665047384952    5    1  0  0
 -1.315655302874149    5    2  0  0
 -7.967773293620078    5    5  0  0
 -0.000334615549847878    6    1  0  0
 -1.52743175970038    6    2  0  0
 -2.595099196657068    6    5  0  0
 -34.42951387170294    6    6  0  0
 -1.024091170783309    7    1  0  0
 -4.332948712177906    7    2  0  0
 -5.256753949173441    7    5  0  0
 -8.017236546799115    7    6  0  0
 -11.04604534968544    7    7  0  0
 -2.114956187138289    8    3  0  0
 -9.082034851832894    8    8  0  0
 -2.114956187138289    9    4  0  0
 -9.082034851832894    9    9  0  0
 1.690824137640843   10    1  0  0
 3.60519597206879   10    2  0  0
 3.382966279834106   10    5  0  0
 0.06704579760380289   10    6  0  0
 0.8233733862615142   10    7  0  0
 -9.588237812080298   10   10  0  0
 22.5140712945591  0  0  0  0
