 &FCI NORB=   9,NELEC=10,MS2=0,
  ORBSYM=1,1,1,1,1,1,1,1,1,
  ISYM=1,
 &END
 5.971435708848493    1    1    1    1
 -0.6154479134716155    1    1    2    1
 1.451129142323531    1    1    2    2
 1.420226884538355    1    1    3    3
 1.420226884538353    1    1    4    4
 1.420226884538352    1    1    5    5
 -0.2252017895859249    1    1    6    3
 -0.6194660678288577    1    1    6    4
 -0.002299723050164102    1    1    6    5
 1.206621592565541    1    1    6    6
 0.2080914854935151    1    1    7    3
 -0.07334411968279696    1    1    7    4
 -0.6211102299296115    1    1    7    5
 1.206621592565541    1    1    7    7
 -0.5834735911612081    1    1    8    3
 0.2129360816460337    1    1    8    4
 -0.2206266926299596    1    1    8    5
 1.20662159256554    1    1    8    8
 -0.5406208808410826    1    1    9    1
 0.5822944127259022    1    1    9    2
 1.135014655789347    1    1    9    9
 -0.6154479134716152    2    1    1    1
 0.1030682984267779    2    1    2    1
 -0.02877376706425209    2    1    2    2
 -0.01993628189677855    2    1    3    3
 -0.01993628189677854    2    1    4    4
 -0.01993628189677852    2    1    5    5
 0.00750424947529163    2    1    6    3
 0.02064205583362829    2    1    6    4
 7.663214188591329e-05    2    1    6    5
 -0.02443621713660266    2    1    6    6
 -0.006934094190364126    2    1    7    3
 0.002443997326386054    2    1    7    4
 0.02069684315394472    2    1    7    5
 -0.02443621713660266    2    1    7    7
 0.01944270246861162    2    1    8    3
 -0.007095527446300425    2    1    8    4
 0.007351796561865236    2    1    8    5
 -0.02443621713660264    2    1    8    8
 0.09147747996362718    2    1    9    1
 -0.02596557269577078    2    1    9    2
 -0.02364552397453546    2    1    9    9
 1.45112914232353    2    2    1    1
 -0.02877376706425203    2    2    2    1
 1.015863253187183    2    2    2    2
 0.9920186248405597    2    2    3    3
 0.9920186248405591    2    2    4    4
 0.9920186248405585    2    2    5    5
 -0.09011079663027755    2    2    6    3
 -0.2478691708450471    2    2    6    4
 -0.0009201964001277553    2    2    6    5
 0.797514920746317    2    2    6    6
 0.08326438952495106    2    2    7    3
 -0.02934744464027267    2    2    7    4
 -0.2485270553004088    2    2    7    5
 0.797514920746317    2    2    7    7
 -0.233467372568124    2    2    8    3
 0.08520287509142058    2    2    8    4
 -0.08828014674014656    2    2    8    5
 0.7975149207463162    2    2    8    8
 -0.02370294078490166    2    2    9    1
 0.2287708794646817    2    2    9    2
 0.8055192824652903    2    2    9    9
 0.04807962077884995    3    1    3    1
 0.04897299452333299    3    1    3    2
 -0.01830448601056373    3    1    6    1
 -0.009433317212832451    3    1    6    2
 0.01691375406979241    3    1    7    1
 0.008716595883004196    3    1    7    2
 -0.04742495255735401    3    1    8    1
 -0.02444070928945313    3    1    8    2
 0.02647846408366271    3    1    9    3
 -0.0117478629985272    3    1    9    6
 0.01085528790527255    3    1    9    7
 -0.03043744823175663    3    1    9    8
 0.048972994523333    3    2    3    1
 0.2002670668982409    3    2    3    2
 -0.01696888648788568    3    2    6    1
 -0.01896595106222241    3    2    6    2
 0.01567963026815866    3    2    7    1
 0.01752496255732171    3    2    7    2
 -0.04396455798729743    3    2    8    1
 -0.04913873729160752    3    2    8    2
 0.04075528918560856    3    2    9    3
 -0.04667276417415744    3    2    9    6
 0.04312667695468406    3    2    9    7
 -0.1209241070960734    3    2    9    8
 1.420226884538354    3    3    1    1
 -0.01993628189677858    3    3    2    1
 0.9920186248405597    3    3    2    2
 1.044224096619415    3    3    3    3
 0.9404281494275262    3    3    4    4
 0.9404281494275257    3    3    5    5
 -0.0967824179193766    3    3    6    3
 -0.2360513346617588    3    3    6    4
 -0.0008763235365679732    3    3    6    5
 0.7777049536115812    3    3    6    6
 0.08942911666700204    3    3    7    3
 -0.02794822547971934    3    3    7    4
 -0.2366778526882322    3    3    7    5
 -0.00745900638912566    3    3    7    6
 0.7765249196459866    3    3    7    7
 -0.2507528250486558    3    3    8    3
 0.08114059652429279    3    3    8    4
 -0.084071150886185    3    3    8    5
 0.02091451860241134    3    3    8    6
 -0.0193254825033129    3    3    8    7
 0.8238198970798761    3    3    8    8
 -0.01569868340144505    3    3    9    1
 0.2228956678753047    3    3    9    2
 0.7943558968145259    3    3    9    9
 0.0480796207788499    4    1    4    1
 0.04897299452333296    4    1    4    2
 -0.05035043457443701    4    1    6    1
 -0.02594837248478428    4    1    6    2
 -0.005961437585195706    4    1    7    1
 -0.00307225954081412    4    1    7    2
 0.01730752466399443    4    1    8    1
 0.008919527717421692    4    1    8    2
 0.02647846408366268    4    1    9    4
 -0.03231502960287583    4    1    9    6
 -0.003826064932100936    4    1    9    7
 0.01110801081652307    4    1    9    8
 0.04897299452333296    4    2    4    1
 0.2002670668982407    4    2    4    2
 -0.04667658017910239    4    2    6    1
 -0.05216993678758833    4    2    6    2
 -0.005526457155334558    4    2    7    1
 -0.006176864700602057    4    2    7    2
 0.01604466911772947    4    2    8    1
 0.0179329627500104    4    2    8    2
 0.04075528918560842    4    2    9    4
 -0.1283834988648592    4    2    9    6
 -0.01520046891194999    4    2    9    7
 0.04413071290911093    4    2    9    8
 0.05189797359594433    4    3    4    3
 -0.01508478435274375    4    3    6    3
 -0.005483949175234128    4    3    6    4
 0.02220466323657425    4    3    6    6
 -0.001786022328607197    4    3    7    3
 0.005067291571455398    4    3    7    4
 -0.008944298300602525    4    3    7    6
 -0.00242926247755276    4    3    7    7
 0.00518526363164113    4    3    8    3
 -0.01420832190056205    4    3    8    4
 0.02494861583866454    4    3    8    6
 0.006932113094432611    4    3    8    7
 -0.01977540075902195    4    3    8    8
 1.420226884538353    4    4    1    1
 -0.01993628189677852    4    4    2    1
 0.9920186248405594    4    4    2    2
 0.9404281494275265    4    4    3    3
 1.044224096619415    4    4    4    4
 0.940428149427525    4    4    5    5
 -0.08581451956890812    4    4    6    3
 -0.2662209033672463    4    4    6    4
 -0.0008763235365679711    4    4    6    5
 0.8307113438535521    4    4    6    6
 0.0792945335240911    4    4    7    3
 -0.03152027013693361    4    4    7    4
 -0.2366778526882317    4    4    7    5
 0.007231654246327093    4    4    7    6
 0.7704888512039878    4    4    7    7
 -0.2223361812475318    4    4    8    3
 0.09151112378757491    4    4    8    4
 -0.08407115088618509    4    4    8    5
 -0.02099527713593894    4    4    8    6
 -0.002485818350678744    4    4    8    7
 0.7768495752799036    4    4    8    8
 -0.015698683401445    4    4    9    1
 0.2228956678753047    4    4    9    2
 0.794355896814524    4    4    9    9
 0.04807962077884987    5    1    5    1
 0.04897299452333291    5    1    5    2
 -0.0001869223529586511    5    1    6    1
 -9.633145932698481e-05    5    1    6    2
 -0.05048407268729431    5    1    7    1
 -0.02601724361886474    5    1    7    2
 -0.01793262041224223    5    1    8    1
 -0.009241674238127676    5    1    8    2
 0.02647846408366267    5    1    9    5
 -0.0001199672141929188    5    1    9    6
 -0.03240079886404621    5    1    9    7
 -0.01150919876614039    5    1    9    8
 0.04897299452333291    5    2    5    1
 0.2002670668982406    5    2    5    2
 -0.0001732834337753785    5    2    6    1
 -0.0001936771235533879    5    2    6    2
 -0.04680046729432771    5    2    7    1
 -0.0523084041505635    5    2    7    2
 -0.01662415432097176    5    2    8    1
 -0.01858064744127294    5    2    8    2
 0.0407552891856084    5    2    9    5
 -0.0004766144699983917    5    2    9    6
 -0.1287242492209451    5    2    9    7
 -0.04572458156116707    5    2    9    8
 0.05189797359594427    5    3    5    3
 -5.600117275891161e-05    5    3    6    3
 -0.005483949175234216    5    3    6    5
 8.243320904609311e-05    5    3    6    6
 -0.01512482178500821    5    3    7    3
 0.005067291571455363    5    3    7    5
 0.01109371392000645    5    3    7    6
 -0.02057206198012305    5    3    7    7
 -0.005372539762261036    5    3    8    3
 -0.014208321900562    5    3    8    5
 0.004060952238143393    5    3    8    6
 0.02518755638872017    5    3    8    7
 0.02048962877107697    5    3    8    8
 0.05189797359594426    5    4    5    4
 -5.600117275890639e-05    5    4    6    4
 -0.01508478435274375    5    4    6    5
 0.0002267503111772956    5    4    6    6
 -0.01512482178500821    5    4    7    4
 -0.001786022328607172    5    4    7    5
 0.03063383622505359    5    4    7    6
 0.007250848214253794    5    4    7    7
 -0.005372539762261021    5    4    8    4
 0.005185263631641028    5    4    8    5
 0.01083780998208542    5    4    8    6
 -0.009237701663661    5    4    8    7
 -0.007477598525430931    5    4    8    8
 1.420226884538353    5    5    1    1
 -0.0199362818967786    5    5    2    1
 0.9920186248405585    5    5    2    2
 0.9404281494275255    5    5    3    3
 0.9404281494275251    5    5    4    4
 1.044224096619413    5    5    5    5
 -0.08581451956890805    5    5    6    3
 -0.2360513346617586    5    5    6    4
 -0.0009883258820857683    5    5    6    5
 0.76963347287231    5    5    6    6
 0.07929453352409108    5    5    7    3
 -0.02794822547971928    5    5    7    4
 -0.2669274962582481    5    5    7    5
 0.0002273521427986138    5    5    7    6
 0.8310359994874693    5    5    7    7
 -0.2223361812475315    5    5    8    3
 0.08114059652429269    5    5    8    4
 -0.09481623041070693    5    5    8    5
 8.075853352732086e-05    5    5    8    6
 0.02181130085399165    5    5    8    7
 0.7773802979776616    5    5    8    8
 -0.01569868340144501    5    5    9    1
 0.2228956678753042    5    5    9    2
 0.7943558968145239    5    5    9    9
 -0.01830448601056372    6    1    3    1
 -0.01696888648788569    6    1    3    2
 -0.050350434574437    6    1    4    1
 -0.04667658017910239    6    1    4    2
 -0.0001869223529586511    6    1    5    1
 -0.0001732834337753785    6    1    5    2
 0.05992350700515599    6    1    6    1
 0.02873391988315305    6    1    6    2
 -0.009476629460138455    6    1    9    3
 -0.02606751215759423    6    1    9    4
 -9.677375676017659e-05    6    1    9    5
 0.0352227472418364    6    1    9    6
 -0.00943331721283245    6    2    3    1
 -0.01896595106222242    6    2    3    2
 -0.02594837248478429    6    2    4    1
 -0.05216993678758833    6    2    4    2
 -9.633145932698478e-05    6    2    5    1
 -0.000193677123553388    6    2    5    2
 0.02873391988315305    6    2    6    1
 0.05065744768270375    6    2    6    2
 -0.0181484540164862    6    2    9    3
 -0.04992123493972527    6    2    9    4
 -0.0001853289803038301    6    2    9    5
 0.02115331780570989    6    2    9    6
 -0.2252017895859248    6    3    1    1
 0.00750424947529164    6    3    2    1
 -0.09011079663027753    6    3    2    2
 -0.09678241791937668    6    3    3    3
 -0.01508478435274375    6    3    4    3
 -0.08581451956890812    6    3    4    4
 -5.60011727589043e-05    6    3    5    3
 -0.08581451956890808    6    3    5    5
 0.04262863802706492    6    3    6    3
 0.05784663050110254    6    3    6    4
 0.0002147514390965238    6    3    6    5
 -0.06497351395107792    6    3    6    6
 -0.01943188157820861    6    3    7    3
 -0.0003806589522783103    6    3    7    4
 0.0510225375158728    6    3    7    5
 0.001853477188974788    6    3    7    6
 -0.06096175557543954    6    3    7    7
 0.05448560137175835    6    3    8    3
 0.0004686646869608808    6    3    8    4
 0.01819904967568498    6    3    8    5
 -0.005197017018844841    6    3    8    6
 -0.06096175557543949    6    3    8    8
 0.005976091956160507    6    3    9    1
 -0.05149341599686084    6    3    9    2
 -0.05599082329168138    6    3    9    9
 -0.6194660678288574    6    4    1    1
 0.02064205583362828    6    4    2    1
 -0.247869170845047    6    4    2    2
 -0.236051334661759    6    4    3    3
 -0.005483949175234096    6    4    4    3
 -0.2662209033672462    6    4    4    4
 -5.600117275890777e-05    6    4    5    4
 -0.2360513346617586    6    4    5    5
 0.05784663050110252    6    4    6    3
 0.1807185985842686    6    4    6    4
 0.0005907201260803262    6    4    6    5
 -0.1787236561232606    6    4    6    6
 -0.04622194099477814    6    4    7    3
 0.01883959358635827    6    4    7    4
 0.1404223159557099    6    4    7    5
 -0.0006532783042761215    6    4    7    6
 -0.1676884499172816    6    4    7    7
 0.1295214501422547    6    4    8    3
 -0.05469599001845836    6    4    8    4
 0.04985256836772419    6    4    8    5
 0.001896628154220674    6    4    8    6
 -0.1676884499172814    6    4    8    8
 0.01643852916032864    6    4    9    1
 -0.1416437408659235    6    4    9    2
 -0.1540148291129131    6    4    9    9
 -0.002299723050164102    6    5    1    1
 7.663214188591335e-05    6    5    2    1
 -0.0009201964001277552    6    5    2    2
 -0.000876323536567974    6    5    3    3
 -0.0008763235365679713    6    5    4    4
 -0.00548394917523422    6    5    5    3
 -0.01508478435274375    6    5    5    4
 -0.0009883258820857681    6    5    5    5
 0.000214751439096524    6    5    6    3
 0.0005907201260803265    6    5    6    4
 0.02160116470099952    6    5    6    5
 -0.0006634986691632782    6    5    6    6
 0.006779192073839644    6    5    7    3
 0.01918958052404509    6    5    7    4
 0.0005922879918503712    6    5    7    5
 -0.005532247704816822    6    5    7    6
 -0.0006225312628868571    6    5    7    7
 0.002959785394199839    6    5    8    3
 0.006615821429082861    6    5    8    4
 0.0002103886466999499    6    5    8    5
 -0.00196512866011198    6    5    8    6
 -0.0006225312628868521    6    5    8    8
 6.102685261405987e-05    6    5    9    1
 -0.0005258421610121695    6    5    9    2
 -0.000571768932912554    6    5    9    9
 1.206621592565541    6    6    1    1
 -0.02443621713660273    6    6    2    1
 0.7975149207463169    6    6    2    2
 0.7777049536115815    6    6    3    3
 0.02220466323657419    6    6    4    3
 0.8307113438535518    6    6    4    4
 8.243320904607559e-05    6    6    5    3
 0.0002267503111773078    6    6    5    4
 0.7696334728723103    6    6    5    5
 -0.06497351395107789    6    6    6    3
 -0.1787236561232605    6    6    6    4
 -0.0006634986691632782    6    6    6    5
 0.7314969168565383    6    6    6    6
 0.05633002428315825    6    6    7    3
 -0.01985413306537029    6    6    7    4
 -0.1681335219049282    6    6    7    5
 0.6643336995304536    6    6    7    7
 -0.1579453454366186    6    6    8    3
 0.05764144852652044    6    6    8    4
 -0.05972328432316272    6    6    8    5
 0.6643336995304528    6    6    8    8
 -0.01985854569982359    6    6    9    1
 0.1518264617986599    6    6    9    2
 0.6818209617561336    6    6    9    9
 0.01691375406979241    7    1    3    1
 0.01567963026815865    7    1    3    2
 -0.005961437585195707    7    1    4    1
 -0.005526457155334558    7    1    4    2
 -0.0504840726872943    7    1    5    1
 -0.0468004672943277    7    1    5    2
 0.05992350700515599    7    1    7    1
 0.02873391988315305    7    1    7    2
 0.008756617367285204    7    1    9    3
 -0.003086365550610858    7    1    9    4
 -0.02613669950743677    7    1    9    5
 0.0352227472418364    7    1    9    7
 0.008716595883004193    7    2    3    1
 0.0175249625573217    7    2    3    2
 -0.00307225954081412    7    2    4    1
 -0.006176864700602057    7    2    4    2
 -0.02601724361886474    7    2    5    1
 -0.05230840415056352    7    2    5    2
 0.02873391988315304    7    2    7    1
 0.05065744768270374    7    2    7    2
 0.0167695770208808    7    2    9    3
 -0.005910620807633633    7    2    9    4
 -0.05005373388805089    7    2    9    5
 0.02115331780570988    7    2    9    7
 0.208091485493515    7    3    1    1
 -0.006934094190364111    7    3    2    1
 0.08326438952495105    7    3    2    2
 0.08942911666700204    7    3    3    3
 -0.001786022328607201    7    3    4    3
 0.07929453352409117    7    3    4    4
 -0.01512482178500823    7    3    5    3
 0.07929453352409109    7    3    5    5
 -0.01943188157820862    7    3    6    3
 -0.04622194099477817    7    3    6    4
 0.006779192073839644    7    3    6    5
 0.05633002428315827    7    3    6    6
 0.03955446446004218    7    3    7    3
 -0.006328609780386691    7    3    7    4
 -0.05359344815686341    7    3    7    5
 -0.002005879187819142    7    3    7    6
 0.06003697866110771    7    3    7    7
 -0.05034591309555615    7    3    8    3
 0.0182981573572824    7    3    8    4
 0.001261952315126812    7    3    8    5
 -0.005197017018844848    7    3    8    7
 0.05633002428315819    7    3    8    8
 -0.005522042497485585    7    3    9    1
 0.04758106695166337    7    3    9    2
 0.05173677178229282    7    3    9    9
 -0.07334411968279693    7    4    1    1
 0.002443997326386051    7    4    2    1
 -0.02934744464027265    7    4    2    2
 -0.02794822547971934    7    4    3    3
 0.005067291571455399    7    4    4    3
 -0.03152027013693364    7    4    4    4
 -0.01512482178500821    7    4    5    4
 -0.02794822547971928    7    4    5    5
 -0.0003806589522783077    7    4    6    3
 0.01883959358635828    7    4    6    4
 0.01918958052404509    7    4    6    5
 -0.01985413306537029    7    4    6    6
 -0.00632860978038669    7    4    7    3
 0.0238295594198921    7    4    7    4
 0.01888959688335379    7    4    7    5
 -0.00551760310298942    7    4    7    6
 -0.02116068967392247    7    4    7    7
 0.01782032644885725    7    4    8    3
 -0.006475946700588589    7    4    8    4
 -0.0006697194277631716    7    4    8    5
 0.001896628154220641    7    4    8    7
 -0.01985413306537026    7    4    8    8
 0.001946304265494308    7    4    9    1
 -0.01677046737814137    7    4    9    2
 -0.01823519099112925    7    4    9    9
 -0.6211102299296113    7    5    1    1
 0.02069684315394472    7    5    2    1
 -0.2485270553004088    7    5    2    2
 -0.2366778526882321    7    5    3    3
 -0.2366778526882319    7    5    4    4
 0.005067291571455339    7    5    5    3
 -0.001786022328607165    7    5    5    4
 -0.266927496258248    7    5    5    5
 0.05102253751587281    7    5    6    3
 0.1404223159557099    7    5    6    4
 0.0005922879918503712    7    5    6    5
 -0.1681335219049282    7    5    6    6
 -0.05359344815686341    7    5    7    3
 0.01888959688335379    7    5    7    4
 0.1815643774323986    7    5    7    5
 -2.0483703138218e-05    7    5    7    6
 -0.1791980173145616    7    5    7    7
 0.129973117734849    7    5    8    3
 -0.04746160408062776    7    5    8    4
 0.05682185979614463    7    5    8    5
 -0.001965128660111987    7    5    8    7
 -0.168133521904928    7    5    8    8
 0.0164821596480037    7    5    9    1
 -0.1420196860268215    7    5    9    2
 -0.1544236091222345    7    5    9    9
 -0.007459006389125659    7    6    3    3
 -0.008944298300602524    7    6    4    3
 0.007231654246327091    7    6    4    4
 0.01109371392000646    7    6    5    3
 0.0306338362250536    7    6    5    4
 0.0002273521427986138    7    6    5    5
 0.001853477188974788    7    6    6    3
 -0.0006532783042761212    7    6    6    4
 -0.005532247704816817    7    6    6    5
 -0.002005879187819139    7    6    7    3
 -0.005517603102989418    7    6    7    4
 -2.048370313821798e-05    7    6    7    5
 0.03358160866304244    7    6    7    6
 1.206621592565541    7    7    1    1
 -0.02443621713660265    7    7    2    1
 0.7975149207463168    7    7    2    2
 0.7765249196459866    7    7    3    3
 -0.002429262477552681    7    7    4    3
 0.7704888512039879    7    7    4    4
 -0.02057206198012308    7    7    5    3
 0.007250848214253801    7    7    5    4
 0.8310359994874693    7    7    5    5
 -0.06096175557543958    7    7    6    3
 -0.1676884499172816    7    7    6    4
 -0.0006225312628868572    7    7    6    5
 0.6643336995304535    7    7    6    6
 0.06003697866110775    7    7    7    3
 -0.02116068967392249    7    7    7    4
 -0.1791980173145616    7    7    7    5
 0.7314969168565376    7    7    7    7
 -0.1579453454366186    7    7    8    3
 0.05764144852652042    7    7    8    4
 -0.0597232843231627    7    7    8    5
 0.664333699530453    7    7    8    8
 -0.01985854569982348    7    7    9    1
 0.1518264617986598    7    7    9    2
 0.6818209617561336    7    7    9    9
 -0.047424952557354    8    1    3    1
 -0.04396455798729743    8    1    3    2
 0.01730752466399442    8    1    4    1
 0.01604466911772947    8    1    4    2
 -0.01793262041224223    8    1    5    1
 -0.01662415432097176    8    1    5    2
 0.05992350700515593    8    1    8    1
 0.02873391988315302    8    1    8    2
 -0.02455292665914351    8    1    9    3
 0.008960480945393735    8    1    9    4
 -0.009284106573550339    8    1    9    5
 0.03522274724183637    8    1    9    8
 -0.02444070928945314    8    2    3    1
 -0.04913873729160752    8    2    3    2
 0.008919527717421693    8    2    4    1
 0.0179329627500104    8    2    4    2
 -0.009241674238127679    8    2    5    1
 -0.01858064744127294    8    2    5    2
 0.02873391988315302    8    2    8    1
 0.05065744768270369    8    2    8    2
 -0.04702069045940238    8    2    9    3
 0.01715999101654261    8    2    9    4
 -0.01777975829306867    8    2    9    5
 0.02115331780570984    8    2    9    8
 -0.583473591161208    8    3    1    1
 0.01944270246861165    8    3    2    1
 -0.233467372568124    8    3    2    2
 -0.2507528250486559    8    3    3    3
 0.005185263631641108    8    3    4    3
 -0.2223361812475317    8    3    4    4
 -0.005372539762261066    8    3    5    3
 -0.2223361812475314    8    3    5    5
 0.05448560137175835    8    3    6    3
 0.1295214501422547    8    3    6    4
 0.002959785394199838    8    3    6    5
 -0.1579453454366187    8    3    6    6
 -0.05034591309555612    8    3    7    3
 0.01782032644885723    8    3    7    4
 0.129973117734849    8    3    7    5
 -0.1579453454366185    8    3    7    7
 0.162765298825226    8    3    8    3
 -0.0515180207207159    8    3    8    4
 0.05337869671776687    8    3    8    5
 -0.002005879187819113    8    3    8    6
 0.00185347718897478    8    3    8    7
 -0.1683393794743082    8    3    8    8
 0.01548341086090781    8    3    9    1
 -0.1334138969680915    8    3    9    2
 -0.1450661950694907    8    3    9    9
 0.2129360816460337    8    4    1    1
 -0.007095527446300424    8    4    2    1
 0.08520287509142056    8    4    2    2
 0.08114059652429284    8    4    3    3
 -0.01420832190056205    8    4    4    3
 0.09151112378757482    8    4    4    4
 -0.005372539762261021    8    4    5    4
 0.08114059652429267    8    4    5    5
 0.0004686646869608809    8    4    6    3
 -0.05469599001845835    8    4    6    4
 0.00661582142908286    8    4    6    5
 0.05764144852652044    8    4    6    6
 0.01829815735728239    8    4    7    3
 -0.006475946700588586    8    4    7    4
 -0.04746160408062775    8    4    7    5
 0.05764144852652042    8    4    7    7
 -0.0515180207207159    8    4    8    3
 0.04040024330817234    8    4    8    4
 -0.0194803170094341    8    4    8    5
 -0.005517603102989423    8    4    8    6
 -0.0006532783042761109    8    4    8    7
 0.0614347048349617    8    4    8    8
 -0.005650601653925473    8    4    9    1
 0.04868880595088328    8    4    9    2
 0.05294126011071163    8    4    9    9
 -0.2206266926299595    8    5    1    1
 0.007351796561865236    8    5    2    1
 -0.08828014674014657    8    5    2    2
 -0.08407115088618504    8    5    3    3
 -0.084071150886185    8    5    4    4
 -0.01420832190056201    8    5    5    3
 0.005185263631641029    8    5    5    4
 -0.09481623041070693    8    5    5    5
 0.01819904967568498    8    5    6    3
 0.04985256836772416    8    5    6    4
 0.0002103886466999498    8    5    6    5
 -0.05972328432316269    8    5    6    6
 0.001261952315126812    8    5    7    3
 -0.0006697194277631735    8    5    7    4
 0.05682185979614462    8    5    7    5
 -0.05972328432316269    8    5    7    7
 0.05337869671776685    8    5    8    3
 -0.01948031700943409    8    5    8    4
 0.04178285917893463    8    5    8    5
 -2.048370313820067e-05    8    5    8    6
 -0.005532247704816805    8    5    8    7
 -0.06365354164338664    8    5    8    8
 0.005854684394668802    8    5    9    1
 -0.05044729921771507    8    5    9    2
 -0.05485333923493958    8    5    9    9
 0.02091451860241134    8    6    3    3
 0.02494861583866453    8    6    4    3
 -0.02099527713593894    8    6    4    4
 0.004060952238143392    8    6    5    3
 0.01083780998208542    8    6    5    4
 8.075853352732084e-05    8    6    5    5
 -0.005197017018844836    8    6    6    3
 0.001896628154220675    8    6    6    4
 -0.001965128660111979    8    6    6    5
 -0.002005879187819113    8    6    8    3
 -0.005517603102989425    8    6    8    4
 -2.048370313820068e-05    8    6    8    5
 0.0335816086630424    8    6    8    6
 -0.01932548250331289    8    7    3    3
 0.00693211309443261    8    7    4    3
 -0.002485818350678749    8    7    4    4
 0.02518755638872018    8    7    5    3
 -0.009237701663661002    8    7    5    4
 0.02181130085399165    8    7    5    5
 -0.005197017018844839    8    7    7    3
 0.00189662815422064    8    7    7    4
 -0.001965128660111979    8    7    7    5
 0.001853477188974779    8    7    8    3
 -0.0006532783042761098    8    7    8    4
 -0.005532247704816805    8    7    8    5
 0.03358160866304241    8    7    8    7
 1.20662159256554    8    8    1    1
 -0.02443621713660269    8    8    2    1
 0.7975149207463161    8    8    2    2
 0.8238198970798765    8    8    3    3
 -0.01977540075902188    8    8    4    3
 0.7768495752799035    8    8    4    4
 0.02048962877107701    8    8    5    3
 -0.007477598525430949    8    8    5    4
 0.7773802979776617    8    8    5    5
 -0.06096175557543946    8    8    6    3
 -0.1676884499172814    8    8    6    4
 -0.0006225312628868518    8    8    6    5
 0.6643336995304526    8    8    6    6
 0.05633002428315818    8    8    7    3
 -0.01985413306537025    8    8    7    4
 -0.168133521904928    8    8    7    5
 0.6643336995304528    8    8    7    7
 -0.1683393794743082    8    8    8    3
 0.06143470483496167    8    8    8    4
 -0.06365354164338663    8    8    8    5
 0.7314969168565369    8    8    8    8
 -0.01985854569982359    8    8    9    1
 0.1518264617986598    8    8    9    2
 0.6818209617561335    8    8    9    9
 -0.5406208808410826    9    1    1    1
 0.09147747996362716    9    1    2    1
 -0.02370294078490173    9    1    2    2
 -0.01569868340144507    9    1    3    3
 -0.01569868340144505    9    1    4    4
 -0.01569868340144503    9    1    5    5
 0.005976091956160527    9    1    6    3
 0.01643852916032866    9    1    6    4
 6.102685261405988e-05    9    1    6    5
 -0.01985854569982361    9    1    6    6
 -0.005522042497485611    9    1    7    3
 0.001946304265494309    9    1    7    4
 0.01648215964800376    9    1    7    5
 -0.01985854569982361    9    1    7    7
 0.01548341086090783    9    1    8    3
 -0.005650601653925468    9    1    8    4
 0.005854684394668802    9    1    8    5
 -0.01985854569982359    9    1    8    8
 0.08139124837796291    9    1    9    1
 -0.02129169362255481    9    1    9    2
 -0.01955036678249436    9    1    9    9
 0.5822944127259022    9    2    1    1
 -0.02596557269577083    9    2    2    1
 0.2287708794646818    9    2    2    2
 0.2228956678753045    9    2    3    3
 0.2228956678753043    9    2    4    4
 0.2228956678753042    9    2    5    5
 -0.05149341599686085    9    2    6    3
 -0.1416437408659235    9    2    6    4
 -0.0005258421610121697    9    2    6    5
 0.1518264617986598    9    2    6    6
 0.0475810669516634    9    2    7    3
 -0.01677046737814137    9    2    7    4
 -0.1420196860268215    9    2    7    5
 0.1518264617986598    9    2    7    7
 -0.1334138969680914    9    2    8    3
 0.04868880595088324    9    2    8    4
 -0.05044729921771506    9    2    8    5
 0.1518264617986596    9    2    8    8
 -0.02129169362255489    9    2    9    1
 0.1359816565985378    9    2    9    2
 0.138608061874271    9    2    9    9
 0.02647846408366272    9    3    3    1
 0.04075528918560851    9    3    3    2
 -0.009476629460138447    9    3    6    1
 -0.01814845401648619    9    3    6    2
 0.008756617367285198    9    3    7    1
 0.0167695770208808    9    3    7    2
 -0.02455292665914349    9    3    8    1
 -0.04702069045940235    9    3    8    2
 0.05796533073314541    9    3    9    3
 -0.002632359811332926    9    3    9    6
 0.002432359283205    9    3    9    7
 -0.006820160866265468    9    3    9    8
 0.02647846408366269    9    4    4    1
 0.04075528918560843    9    4    4    2
 -0.02606751215759421    9    4    6    1
 -0.04992123493972525    9    4    6    2
 -0.003086365550610856    9    4    7    1
 -0.00591062080763363    9    4    7    2
 0.008960480945393732    9    4    8    1
 0.0171599910165426    9    4    8    2
 0.05796533073314541    9    4    9    4
 -0.007240873105117849    9    4    9    6
 -0.0008573116288533053    9    4    9    7
 0.002488987253335595    9    4    9    8
 0.02647846408366266    9    5    5    1