 &FCI NORB=   2,NELEC= 2,MS2=0,
  ORBSYM=1,1,
  ISYM=1,
 &END
 0.774998521297643    1    1    1    1
 0.3674998931659318    2    1    1    1
 0.2241886928104683    2    1    2    1
 0.5907812585964368    2    2    1    1
 0.4437224861904144    2    2    2    1
 1.056247984454042    2    2    2    2
 -1.735762791457668    1    1  0  0
 -1.434588339872632    2    1  0  0
 -2.617821400067692    2    2  0  0
 0  0  0  0  0
