 &FCI NORB=  10,NELEC=14,MS2=0,
  ORBSYM=1,1,1,1,1,1,1,1,1,1,
  ISYM=1,
 &END
 4.166630336662227    1    1    1    1
 0.6408488779669393    2    1    1    1
 0.1174612365518033    2    1    2    1
 0.9698638653761458    2    2    1    1
 0.2209356554223301    2    2    2    1
 0.7082454718774781    2    2    2    2
 0.02096043084260521    3    1    3    1
 0.03245163449288394    3    2    3    1
 0.1564492713341035    3    2    3    2
 0.9671237488757932    3    3    1    1
 0.220977385563473    3    3    2    1
 0.7080862496655831    3    3    2    2
 0.7628045369780807    3    3    3    3
 0.02096043084260521    4    1    4    1
 0.03245163449288394    4    2    4    1
 0.1564492713341035    4    2    4    2
 0.0411185184723139    4    3    4    3
 0.9671237488757932    4    4    1    1
 0.220977385563473    4    4    2    1
 0.7080862496655831    4    4    2    2
 0.6805675000334526    4    4    3    3
 0.7628045369780807    4    4    4    4
 0.02096043084260521    5    1    5    1
 0.03245163449288394    5    2    5    1
 0.1564492713341035    5    2    5    2
 0.0411185184723139    5    3    5    3
 0.0411185184723139    5    4    5    4
 0.9671237488757932    5    5    1    1
 0.220977385563473    5    5    2    1
 0.7080862496655831    5    5    2    2
 0.6805675000334526    5    5    3    3
 0.6805675000334526    5    5    4    4
 0.7628045369780807    5    5    5    5
 5.240005209741798e-06    6    1    1    1
 1.225052019139418e-06    6    1    2    1
 4.140019006290946e-06    6    1    2    2
 3.750128675858412e-06    6    1    3    3
 3.750128675858412e-06    6    1    4    4
 2.827210551343148e-07    6    1    5    1
 1.619471195739154e-06    6    1    5    2
 4.90912113049456e-06    6    1    5    5
 7.318731838471676e-11    6    1    6    1
 0.02601249039923955    6    2    1    1
 0.006113884107993314    6    2    2    1
 0.02536512582334786    6    2    2    2
 0.02339247702818825    6    2    3    3
 0.02339247702818825    6    2    4    4
 0.000768289018225036    6    2    5    1
 0.00865467938249919    6    2    5    2
 0.02927704082400279    6    2    5    5
 2.958983643183152e-07    6    2    6    1
 0.005716587840310148    6    2    6    2
 2.753668396791421e-05    6    3    3    1
 0.0003003844851286923    6    3    3    2
 0.0002058297081263672    6    3    5    3
 4.038157047362838e-05    6    3    6    3
 2.753668396791421e-05    6    4    4    1
 0.0003003844851286923    6    4    4    2
 0.0002058297081263672    6    4    5    4
 4.038157047362838e-05    6    4    6    4
 0.04347999421817229    6    5    1    1
 0.01021938650394049    6    5    2    1
 0.04238864625240907    6    5    2    2
 0.03908000002452496    6    5    3    3
 0.03908000002452496    6    5    4    4
 0.001287316784363659    6    5    5    1
 0.01448822000131981    6    5    5    2
 0.04895091941790103    6    5    5    5
 4.962895830519098e-07    6    5    6    1
 0.009572356443598303    6    5    6    2
 0.01602999359173552    6    5    6    5
 0.4821600771439183    6    6    1    1
 0.1133258261309096    6    6    2    1
 0.4749469068496775    6    6    2    2
 0.438576642765541    6    6    3    3
 0.438576642765541    6    6    4    4
 0.01346846268360595    6    6    5    1
 0.1589158690853474    6    6    5    2
 0.5467909844994745    6    6    5    5
 5.240005209741797e-06    6    6    6    1
 0.1410386102520965    6    6    6    2
 0.2361314774711707    6    6    6    5
 4.166630336662227    6    6    6    6
 0.1410386102520964    7    1    1    1
 0.02565284399159385    7    1    2    1
 0.04800457493987806    7    1    2    2
 0.04787365206049896    7    1    3    3
 0.04787365206049896    7    1    4    4
 0.001484857777574208    7    1    5    1
 0.002796287953239206    7    1    5    2
 0.04827262305540279    7    1    5    5
 2.958983643183152e-07    7    1    6    1
 0.001407999077911214    7    1    6    2
 0.002353836446217587    7    1    6    5
 0.02601249039923955    7    1    6    6
 0.005716587840310148    7    1    7    1
 0.3344470734626024    7    2    1    1
 0.07708995356361341    7    2    2    1
 0.2715756399811505    7    2    2    2
 0.265933046677767    7    2    3    3
 0.265933046677767    7    2    4    4
 0.007079623723651452    7    2    5    1
 0.05279892570234549    7    2    5    2
 0.282605118763838    7    2    5    5
 2.261916194162728e-06    7    2    6    1
 0.01742691763054065    7    2    6    2
 0.02912443447759182    7    2    6    5
 0.3344470734626024    7    2    6    6
 0.01742691763054065    7    2    7    1
 0.1343725706772273    7    2    7    2
 0.007909595648910956    7    3    3    1
 0.04514479627341264    7    3    3    2
 0.01126317233977802    7    3    5    3
 0.0002771106612204184    7    3    6    3
 0.01842514103397224    7    3    7    3
 0.007909595648910956    7    4    4    1
 0.04514479627341264    7    4    4    2
 0.01126317233977802    7    4    5    4
 0.0002771106612204184    7    4    6    4
 0.01842514103397224    7    4    7    4
 0.2842405337585195    7    5    1    1
 0.06635576786280586    7    5    2    1
 0.2486656064237597    7    5    2    2
 0.2372702996910702    7    5    3    3
 0.2372702996910702    7    5    4    4
 0.01255729971501332    7    5    5    1
 0.08468442668134897    7    5    5    2
 0.2711809383283858    7    5    5    5
 2.645161379357437e-06    7    5    6    1
 0.02153349040757848    7    5    6    2
 0.03599576949654011    7    5    6    5
 0.4160473926965783    7    5    6    6
 0.01561055605855701    7    5    7    1
 0.1434783454024994    7    5    7    2
 0.1649343525483723    7    5    7    5
 0.1133258261309096    7    6    1    1
 0.02663582268314001    7    6    2    1
 0.1112631486092801    7    6    2    2
 0.103066481395499    7    6    3    3
 0.103066481395499    7    6    4    4
 0.003165553673316064    7    6    5    1
 0.03673318189454097    7    6    5    2
 0.1274759369795094    7    6    5    5
 1.225052019139418e-06    7    6    6    1
 0.02565284399159385    7    6    6    2
 0.04291366753283749    7    6    6    5
 0.6408488779669393    7    6    6    6
 0.006113884107993314    7    6    7    1
 0.07708995356361342    7    6    7    2
 0.09524613762656008    7    6    7    5
 0.1174612365518033    7    6    7    6
 0.4749469068496774    7    7    1    1
 0.1112631486092802    7    7    2    1
 0.4483547341635575    7    7    2    2
 0.4290426414514929    7    7    3    3
 0.4290426414514929    7    7    4    4
 0.01187463590139888    7    7    5    1
 0.120310609520964    7    7    5    2
 0.4864245431494519    7    7    5    5
 4.140019006290945e-06    7    7    6    1
 0.04800457493987807    7    7    6    2
 0.08014266025022092    7    7    6    5
 0.9698638653761458    7    7    6    6
 0.02536512582334786    7    7    7    1
 0.2715756399811505    7    7    7    2
 0.3156613504089608    7    7    7    5
 0.2209356554223301    7    7    7    6
 0.7082454718774781    7    7    7    7
 0.0008600304207376399    8    1    3    1
 0.001629328953293704    8    1    3    2
 0.0002600325987541372    8    1    5    3
 2.084684803484717e-06    8    1    6    3
 0.00045382032949298    8    1    7    3
 4.038157047362838e-05    8    1    8    1
 0.004387267052903265    8    2    3    1
 0.03344072278714263    8    2    3    2
 0.01200382785126752    8    2    5    3
 0.0004538203294929801    8    2    6    3
 0.01705487658330557    8    2    7    3
 0.0002771106612204183    8    2    8    1
 0.01842514103397224    8    2    8    2
 0.1787717140546568    8    3    1    1
 0.04175667140459942    8    3    2    1
 0.1574321754435412    8    3    2    2
 0.1628978271636758    8    3    3    3
 0.1496966836658614    8    3    4    4
 0.003278066181554816    8    3    5    1
 0.02841069502189207    8    3    5    2
 0.1595278232254393    8    3    5    5
 1.156546578082089e-06    8    3    6    1
 0.009377865155140816    8    3    6    2
 0.01566100835185025    8    3    6    5
 0.1787717140546567    8    3    6    6
 0.009377865155140816    8    3    7    1
 0.07766787967383837    8    3    7    2
 0.08170872375559134    8    3    7    5
 0.04175667140459942    8    3    7    6
 0.1574321754435411    8    3    7    7
 0.04893245515150702    8    3    8    3
 0.006600571748907166    8    4    4    3
 0.002549040222020783    8    4    8    4
 0.003278066181554817    8    5    3    1
 0.02841069502189207    8    5    3    2
 0.01643171130848506    8    5    5    3
 0.0006544913341248006    8    5    6    3
 0.01841829453709428    8    5    7    3
 0.0002413954667495954    8    5    8    1
 0.02191666395141025    8    5    8    2
 0.02787321035958322    8    5    8    5
 0.0003762197470391946    8    6    3    1
 0.004377698061912415    8    6    3    2
 0.00292076595442708    8    6    5    3
 0.0008600304207376398    8    6    6    3
 0.004387267052903264    8    6    7    3
 2.753668396791419e-05    8    6    8    1
 0.007909595648910956    8    6    8    2
 0.01156910063534304    8    6    8    5
 0.02096043084260521    8    6    8    6
 0.004377698061912411    8    7    3    1
 0.04529499230980052    8    7    3    2
 0.0232897294941058    8    7    5    3
 0.001629328953293704    8    7    6    3
 0.03344072278714262    8    7    7    3
 0.0003003844851286923    8    7    8    1
 0.04514479627341263    8    7    8    2
 0.05964050664734052    8    7    8    5
 0.03245163449288394    8    7    8    6
 0.1564492713341035    8    7    8    7
 0.4385766427655409    8    8    1    1
 0.1030664813954989    8    8    2    1
 0.4290426414514927    8    8    2    2
 0.4174293210837599    8    8    3    3
 0.405114615172075    8    8    4    4
 0.009929037159614341    8    8    5    1
 0.1134969843242474    8    8    5    2
 0.463969368591653    8    8    5    5
 3.75012867585841e-06    8    8    6    1
 0.04787365206049895    8    8    6    2
 0.07987906073909991    8    8    6    5
 0.9671237488757932    8    8    6    6
 0.02339247702818823    8    8    7    1
 0.2659330466777667    8    8    7    2
 0.310150034593269    8    8    7    5
 0.220977385563473    8    8    7    6
 0.7080862496655831    8    8    7    7
 0.1628978271636758    8    8    8    3
 0.7628045369780807    8    8    8    8
 0.0008600304207376399    9    1    4    1
 0.001629328953293704    9    1    4    2
 0.0002600325987541372    9    1    5    4
 2.084684803484717e-06    9    1    6    4
 0.00045382032949298    9    1    7    4
 4.038157047362838e-05    9    1    9    1
 0.004387267052903265    9    2    4    1
 0.03344072278714263    9    2    4    2
 0.01200382785126752    9    2    5    4
 0.0004538203294929801    9    2    6    4
 0.01705487658330557    9    2    7    4
 0.0002771106612204183    9    2    9    1
 0.01842514103397224    9    2    9    2
 0.006600571748907166    9    3    4    3
 0.002549040222020783    9    3    8    4
 0.002549040222020783    9    3    9    3
 0.1787717140546568    9    4    1    1
 0.04175667140459942    9    4    2    1
 0.1574321754435412    9    4    2    2
 0.1496966836658614    9    4    3    3
 0.1628978271636758    9    4    4    4
 0.003278066181554816    9    4    5    1
 0.02841069502189207    9    4    5    2
 0.1595278232254393    9    4    5    5
 1.156546578082089e-06    9    4    6    1
 0.009377865155140816    9    4    6    2
 0.01566100835185025    9    4    6    5
 0.1787717140546567    9    4    6    6
 0.009377865155140816    9    4    7    1
 0.07766787967383837    9    4    7    2
 0.08170872375559134    9    4    7    5
 0.04175667140459942    9    4    7    6
 0.1574321754435411    9    4    7    7
 0.04383437470746546    9    4    8    3
 0.1496966836658614    9    4    8    8
 0.04893245515150702    9    4    9    4
 0.003278066181554817    9    5    4    1
 0.02841069502189207    9    5    4    2
 0.01643171130848506    9    5    5    4
 0.0006544913341248006    9    5    6    4
 0.01841829453709428    9    5    7    4
 0.0002413954667495954    9    5    9    1
 0.02191666395141025    9    5    9    2
 0.02787321035958322    9    5    9    5
 0.0003762197470391946    9    6    4    1
 0.004377698061912415    9    6    4    2
 0.00292076595442708    9    6    5    4
 0.0008600304207376398    9    6    6    4
 0.004387267052903264    9    6    7    4
 2.753668396791419e-05    9    6    9    1
 0.007909595648910956    9    6    9    2
 0.01156910063534304    9    6    9    5
 0.02096043084260521    9    6    9    6
 0.004377698061912411    9    7    4    1
 0.04529499230980052    9    7    4    2
 0.0232897294941058    9    7    5    4
 0.001629328953293704    9    7    6    4
 0.03344072278714262    9    7    7    4
 0.0003003844851286923    9    7    9    1
 0.04514479627341263    9    7    9    2
 0.05964050664734052    9    7    9    5
 0.03245163449288394    9    7    9    6
 0.1564492713341035    9    7    9    7
 0.006157352955842355    9    8    4    3
 0.006600571748907167    9    8    8    4
 0.006600571748907167    9    8    9    3
 0.0411185184723139    9    8    9    8
 0.4385766427655409    9    9    1    1
 0.1030664813954989    9    9    2    1
 0.4290426414514927    9    9    2    2
 0.405114615172075    9    9    3    3
 0.4174293210837599    9    9    4    4
 0.009929037159614341    9    9    5    1
 0.1134969843242474    9    9    5    2
 0.463969368591653    9    9    5    5
 3.75012867585841e-06    9    9    6    1
 0.04787365206049895    9    9    6    2
 0.07987906073909991    9    9    6    5
 0.9671237488757932    9    9    6    6
 0.02339247702818823    9    9    7    1
 0.2659330466777667    9    9    7    2
 0.310150034593269    9    9    7    5
 0.220977385563473    9    9    7    6
 0.7080862496655831    9    9    7    7
 0.1496966836658614    9    9    8    3
 0.6805675000334526    9    9    8    8
 0.1628978271636758    9    9    9    4
 0.7628045369780807    9    9    9    9
 -0.2361314774711707   10    1    1    1
 -0.04291366753283751   10    1    2    1
 -0.0801426602502209   10    1    2    2
 -0.07987906073909992   10    1    3    3
 -0.07987906073909992   10    1    4    4
 -0.002600056601251674   10    1    5    1
 -0.004817594562260966   10    1    5    2
 -0.08068020267505156   10    1    5    5
 -4.962895830519098e-07   10    1    6    1
 -0.002353836446217588   10    1    6    2
 -0.003935079254713711   10    1    6    5
 -0.04347999421817229   10    1    6    6
 -0.009572356443598305   10    1    7    1
 -0.02912443447759182   10    1    7    2
 -0.0261246757742903   10    1    7    5
 -0.01021938650394049   10    1    7    6
 -0.04238864625240908   10    1    7    7
 -0.01566100835185025   10    1    8    3
 -0.03908000002452495   10    1    8    8
 -0.01566100835185025   10    1    9    4
 -0.03908000002452495   10    1    9    9
 0.01602999359173552   10    1   10    1
 -0.4160473926965782   10    2    1    1
 -0.09524613762656006   10    2    2    1
 -0.315661350408961   10    2    2    2
 -0.310150034593269   10    2    3    3
 -0.310150034593269   10    2    4    4
 -0.008868822218851675   10    2    5    1
 -0.0546021173631574   10    2    5    2
 -0.3264458845177529   10    2    5    5
 -2.645161379357436e-06   10    2    6    1
 -0.015610556058557   10    2    6    2
 -0.02612467577429031   10    2    6    5
 -0.2842405337585195   10    2    6    6
 -0.02153349040757847   10    2    7    1
 -0.1434783454024994   10    2    7    2
 -0.1475059056024114   10    2    7    5
 -0.06635576786280585   10    2    7    6
 -0.2486656064237597   10    2    7    7
 -0.08170872375559132   10    2    8    3
 -0.2372702996910702   10    2    8    8
 -0.08170872375559132   10    2    9    4
 -0.2372702996910702   10    2    9    9
 0.03599576949654011   10    2   10    1
 0.1649343525483723   10    2   10    2
 -0.01156910063534304   10    3    3    1
 -0.05964050664734051   10    3    3    2
 -0.01283529309479405   10    3    5    3
 -0.0002413954667495953   10    3    6    3
 -0.02191666395141024   10    3    7    3
 -0.0006544913341248006   10    3    8    1
 -0.01841829453709427   10    3    8    2
 -0.0187240219824373   10    3    8    5
 -0.003278066181554816   10    3    8    6
 -0.02841069502189206   10    3    8    7
 0.02787321035958322   10    3   10    3
 -0.01156910063534304   10    4    4    1
 -0.05964050664734051   10    4    4    2
 -0.01283529309479405   10    4    5    4
 -0.0002413954667495953   10    4    6    4
 -0.02191666395141024   10    4    7    4
 -0.0006544913341248006   10    4    9    1
 -0.01841829453709427   10    4    9    2
 -0.0187240219824373   10    4    9    5
 -0.003278066181554816   10    4    9    6
 -0.02841069502189206   10    4    9    7
 0.02787321035958322   10    4   10    4
 -0.289071562697197   10    5    1    1
 -0.06715119640734968   10    5    2    1
 -0.2333529115169657   10    5    2    2
 -0.2214564701614035   10    5    3    3
 -0.2214564701614035   10    5    4    4
 -0.01692574328134658   10    5    5    1
 -0.09455124698086155   10    5    5    2
 -0.256936197971556   10    5    5    5
 -2.853894334980712e-06   10    5    6    1
 -0.01617492115287763   10    5    6    2
 -0.02709996001700424   10    5    6    5
 -0.2890715626971971   10    5    6    6
 -0.01617492115287763   10    5    7    1
 -0.1285179422227148   10    5    7    2
 -0.1466168068781061   10    5    7    5
 -0.06715119640734968   10    5    7    6
 -0.2333529115169656   10    5    7    7
 -0.07113103694031506   10    5    8    3
 -0.2214564701614035   10    5    8    8
 -0.07113103694031506   10    5    9    4
 -0.2214564701614035   10    5    9    9
 0.02709996001700424   10    5   10    1
 0.1466168068781061   10    5   10    2
 0.1526469228981854   10    5   10    5
 -0.01346846268360592   10    6    1    1
 -0.003165553673316058   10    6    2    1
 -0.01187463590139885   10    6    2    2
 -0.00992903715961431   10    6    3    3
 -0.00992903715961431   10    6    4    4
 -0.000752371809598623   10    6    5    1
 -0.006782394663648559   10    6    5    2
 -0.01583055258890603   10    6    5    5
 -2.827210551343144e-07   10    6    6    1
 -0.001484857777574199   10    6    6    2
 -0.002600056601251659   10    6    6    5
 -0.000768289018225034   10    6    7    1
 -0.007079623723651429   10    6    7    2
 -0.008868822218851645   10    6    7    5
 -0.003278066181554804   10    6    8    3
 -0.003278066181554804   10    6    9    4
 0.001287316784363654   10    6   10    1
 0.01255729971501329   10    6   10    2
 0.01692574328134656   10    6   10    5
 0.02096043084260521   10    6   10    6
 -0.1589158690853473   10    7    1    1
 -0.03673318189454093   10    7    2    1
 -0.1203106095209637   10    7    2    2
 -0.1134969843242472   10    7    3    3
 -0.1134969843242472   10    7    4    4
 -0.006782394663648566   10    7    5    1
 -0.04275899832200916   10    7    5    2
 -0.1338936254043829   10    7    5    5
 -1.619471195739152e-06   10    7    6    1
 -0.002796287953239191   10    7    6    2
 -0.004817594562260943   10    7    6    5
 -0.008654679382499178   10    7    7    1
 -0.0527989257023454   10    7    7    2
 -0.05460211736315729   10    7    7    5
 -0.02841069502189201   10    7    8    3
 -0.02841069502189201   10    7    9    4
 0.01448822000131979   10    7   10    1
 0.08468442668134885   10    7   10    2
 0.09455124698086148   10    7   10    5
 0.03245163449288394   10    7   10    6
 0.1564492713341035   10    7   10    7
 -0.00292076595442708   10    8    3    1
 -0.02328972949410577   10    8    3    2
 -0.01197125384799758   10    8    5    3
 -0.0002600325987541368   10    8    6    3
 -0.01200382785126751   10    8    7    3
 -0.000205829708126367   10    8    8    1
 -0.01126317233977801   10    8    8    2
 -0.01283529309479403   10    8    8    5
 0.01643171130848505   10    8   10    3
 0.0411185184723139   10    8   10    8
 -0.00292076595442708   10    9    4    1
 -0.02328972949410577   10    9    4    2
 -0.01197125384799758   10    9    5    4
 -0.0002600325987541368   10    9    6    4
 -0.01200382785126751   10    9    7    4
 -0.000205829708126367   10    9    9    1
 -0.01126317233977801   10    9    9    2
 -0.01283529309479403   10    9    9    5
 0.01643171130848505   10    9   10    4
 0.0411185184723139   10    9   10    9
 0.5467909844994745   10   10    1    1
 0.1274759369795093   10   10    2    1
 0.4864245431494518   10   10    2    2
 0.4639693685916528   10   10    3    3
 0.4639693685916528   10   10    4    4
 0.01583055258890607   10   10    5    1
 0.133893625404383   10   10    5    2
 0.5309001840176003   10   10    5    5
 4.909121130494557e-06   10   10    6    1
 0.04827262305540279   10   10    6    2
 0.08068020267505158   10   10    6    5
 0.9671237488757932   10   10    6    6
 0.02927704082400277   10   10    7    1
 0.282605118763838   10   10    7    2
 0.3264458845177528   10   10    7    5
 0.220977385563473   10   10    7    6
 0.7080862496655831   10   10    7    7
 0.1595278232254393   10   10    8    3
 0.6805675000334526   10   10    8    8
 0.1595278232254393   10   10    9    4
 0.6805675000334526   10   10    9    9
 -0.048950919417901   10   10   10    1
 -0.2711809383283856   10   10   10    2
 -0.2569361979715559   10   10   10    5
 0.7628045369780807   10   10   10   10
 -27.57033097540297    1    1  0  0
 -6.354643598942794    2    1  0  0
 -9.586082348615054    2    2  0  0
 -7.980146190064495    3    3  0  0
 -7.980146190064495    4    4  0  0
 -0.09427924984039593    5    1  0  0
 -1.119269558190105    5    2  0  0
 -8.7491402688114    5    5  0  0
 -0.0003138134792419789    6    1  0  0
 -1.401161836262026    6    2  0  0
 -2.334620517398494    6    5  0  0
 -27.57033097540297    6    6  0  0
 -1.401161836262027    7    1  0  0
 -4.611654738231439    7    2  0  0
 -4.661831607596477    7    5  0  0
 -6.354643598942794    7    6  0  0
 -9.586082348615054    7    7  0  0
 -2.34158520328483    8    3  0  0
 -7.980146190064497    8    8  0  0
 -2.34158520328483    9    4  0  0
 -7.980146190064497    9    9  0  0
 2.334620517398494   10    1  0  0
 4.661831607596476   10    2  0  0
 3.532617814072511   10    5  0  0
 0.09427924984039132   10    6  0  0
 1.119269558190101   10    7  0  0
 -8.7491402688114   10   10  0  0
 23.62584378013501  0  0  0  0
